 Entering Gaussian System, Link 0=/share/apps/gaussian/g09/g09
 Input=glutamine_dftBonded.com
 Output=glutamine_dftBonded.log
 Initial command:
 /share/apps/gaussian/g09/l1.exe "/mnt/scratch/kkesgin/CompChem/Gau-32056.inp" -scrdir="/mnt/scratch/kkesgin/CompChem/"
 Entering Link 1 = /share/apps/gaussian/g09/l1.exe PID=     32057.
  
 Copyright (c) 1988,1990,1992,1993,1995,1998,2003,2009,2013,
            Gaussian, Inc.  All Rights Reserved.
  
 This is part of the Gaussian(R) 09 program.  It is based on
 the Gaussian(R) 03 system (copyright 2003, Gaussian, Inc.),
 the Gaussian(R) 98 system (copyright 1998, Gaussian, Inc.),
 the Gaussian(R) 94 system (copyright 1995, Gaussian, Inc.),
 the Gaussian 92(TM) system (copyright 1992, Gaussian, Inc.),
 the Gaussian 90(TM) system (copyright 1990, Gaussian, Inc.),
 the Gaussian 88(TM) system (copyright 1988, Gaussian, Inc.),
 the Gaussian 86(TM) system (copyright 1986, Carnegie Mellon
 University), and the Gaussian 82(TM) system (copyright 1983,
 Carnegie Mellon University). Gaussian is a federally registered
 trademark of Gaussian, Inc.
  
 This software contains proprietary and confidential information,
 including trade secrets, belonging to Gaussian, Inc.
  
 This software is provided under written license and may be
 used, copied, transmitted, or stored only in accord with that
 written license.
  
 The following legend is applicable only to US Government
 contracts under FAR:
  
                    RESTRICTED RIGHTS LEGEND
  
 Use, reproduction and disclosure by the US Government is
 subject to restrictions as set forth in subparagraphs (a)
 and (c) of the Commercial Computer Software - Restricted
 Rights clause in FAR 52.227-19.
  
 Gaussian, Inc.
 340 Quinnipiac St., Bldg. 40, Wallingford CT 06492
  
  
 ---------------------------------------------------------------
 Warning -- This program may not be used in any manner that
 competes with the business of Gaussian, Inc. or will provide
 assistance to any competitor of Gaussian, Inc.  The licensee
 of this program is prohibited from giving any competitor of
 Gaussian, Inc. access to this program.  By using this program,
 the user acknowledges that Gaussian, Inc. is engaged in the
 business of creating and licensing software in the field of
 computational chemistry and represents and warrants to the
 licensee that it is not a competitor of Gaussian, Inc. and that
 it will not use this program in any manner prohibited above.
 ---------------------------------------------------------------
  

 Cite this work as:
 Gaussian 09, Revision D.01,
 M. J. Frisch, G. W. Trucks, H. B. Schlegel, G. E. Scuseria, 
 M. A. Robb, J. R. Cheeseman, G. Scalmani, V. Barone, B. Mennucci, 
 G. A. Petersson, H. Nakatsuji, M. Caricato, X. Li, H. P. Hratchian, 
 A. F. Izmaylov, J. Bloino, G. Zheng, J. L. Sonnenberg, M. Hada, 
 M. Ehara, K. Toyota, R. Fukuda, J. Hasegawa, M. Ishida, T. Nakajima, 
 Y. Honda, O. Kitao, H. Nakai, T. Vreven, J. A. Montgomery, Jr., 
 J. E. Peralta, F. Ogliaro, M. Bearpark, J. J. Heyd, E. Brothers, 
 K. N. Kudin, V. N. Staroverov, T. Keith, R. Kobayashi, J. Normand, 
 K. Raghavachari, A. Rendell, J. C. Burant, S. S. Iyengar, J. Tomasi, 
 M. Cossi, N. Rega, J. M. Millam, M. Klene, J. E. Knox, J. B. Cross, 
 V. Bakken, C. Adamo, J. Jaramillo, R. Gomperts, R. E. Stratmann, 
 O. Yazyev, A. J. Austin, R. Cammi, C. Pomelli, J. W. Ochterski, 
 R. L. Martin, K. Morokuma, V. G. Zakrzewski, G. A. Voth, 
 P. Salvador, J. J. Dannenberg, S. Dapprich, A. D. Daniels, 
 O. Farkas, J. B. Foresman, J. V. Ortiz, J. Cioslowski, 
 and D. J. Fox, Gaussian, Inc., Wallingford CT, 2013.
 
 ******************************************
 Gaussian 09:  EM64L-G09RevD.01 24-Apr-2013
                10-Jan-2017 
 ******************************************
 %chk=glutamine.chk
 -------------------------------------------
 # opt freq b3lyp/6-31g(d) geom=connectivity
 -------------------------------------------
 1/14=-1,18=20,19=15,26=3,38=1,57=2/1,3;
 2/9=110,12=2,17=6,18=5,40=1/2;
 3/5=1,6=6,7=1,11=2,16=1,25=1,30=1,71=1,74=-5/1,2,3;
 4//1;
 5/5=2,38=5/2;
 6/7=2,8=2,9=2,10=2,28=1/1;
 7//1,2,3,16;
 1/14=-1,18=20,19=15,26=3/3(2);
 2/9=110/2;
 99//99;
 2/9=110/2;
 3/5=1,6=6,7=1,11=2,16=1,25=1,30=1,71=1,74=-5/1,2,3;
 4/5=5,16=3,69=1/1;
 5/5=2,38=5/2;
 7//1,2,3,16;
 1/14=-1,18=20,19=15,26=3/3(-5);
 2/9=110/2;
 6/7=2,8=2,9=2,10=2,19=2,28=1/1;
 99/9=1/99;
 -------------------
 Title Card Required
 -------------------
 Symbolic Z-matrix:
 Charge =  0 Multiplicity = 1
 C                    -3.20853   0.45829  -0.04848 
 N                    -4.30953  -0.06075   0.57904 
 C                    -2.0589   -0.52508  -0.27443 
 H                    -2.20448  -1.44215   0.30898 
 H                    -2.09623  -0.80811  -1.33697 
 C                    -0.70357   0.11668   0.04658 
 H                    -0.62076   0.28716   1.1259 
 H                    -0.65281   1.09332  -0.44088 
 C                     0.48176  -0.74332  -0.40404 
 H                     0.45218  -0.81757  -1.51099 
 C                     1.80333  -0.03758  -0.10821 
 N                     0.47094  -2.05896   0.25054 
 O                     2.85318  -0.86198  -0.1758 
 H                    -5.05995   0.57655   0.80895 
 H                    -4.28523  -0.95333   1.04806 
 H                    -0.24121  -2.64374  -0.18152 
 H                     1.36353  -2.5209    0.09037 
 O                    -3.16661   1.61502  -0.4402 
 O                     1.90032   1.16051   0.11958 
 O                     5.00678  -0.91344  -0.08963 
 H                     5.88267  -0.54662   0.05133 
 H                     3.93931  -0.15401   0.07221 
 H                     4.90723  -1.83256  -0.34828 
 

 GradGradGradGradGradGradGradGradGradGradGradGradGradGradGradGradGradGrad
 Berny optimization.
 Initialization pass.
                           ----------------------------
                           !    Initial Parameters    !
                           ! (Angstroms and Degrees)  !
 --------------------------                            --------------------------
 ! Name  Definition              Value          Derivative Info.                !
 --------------------------------------------------------------------------------
 ! R1    R(1,2)                  1.3694         estimate D2E/DX2                !
 ! R2    R(1,3)                  1.5296         estimate D2E/DX2                !
 ! R3    R(1,18)                 1.222          estimate D2E/DX2                !
 ! R4    R(2,14)                 1.011          estimate D2E/DX2                !
 ! R5    R(2,15)                 1.0086         estimate D2E/DX2                !
 ! R6    R(3,4)                  1.0966         estimate D2E/DX2                !
 ! R7    R(3,5)                  1.1002         estimate D2E/DX2                !
 ! R8    R(3,6)                  1.5336         estimate D2E/DX2                !
 ! R9    R(6,7)                  1.0958         estimate D2E/DX2                !
 ! R10   R(6,8)                  1.0927         estimate D2E/DX2                !
 ! R11   R(6,9)                  1.5322         estimate D2E/DX2                !
 ! R12   R(9,10)                 1.1098         estimate D2E/DX2                !
 ! R13   R(9,11)                 1.5271         estimate D2E/DX2                !
 ! R14   R(9,12)                 1.4695         estimate D2E/DX2                !
 ! R15   R(11,13)                1.3366         estimate D2E/DX2                !
 ! R16   R(11,19)                1.2234         estimate D2E/DX2                !
 ! R17   R(12,16)                1.0177         estimate D2E/DX2                !
 ! R18   R(12,17)                1.0177         estimate D2E/DX2                !
 ! R19   R(13,22)                1.32           estimate D2E/DX2                !
 ! R20   R(20,21)                0.96           estimate D2E/DX2                !
 ! R21   R(20,22)                1.32           estimate D2E/DX2                !
 ! R22   R(20,23)                0.96           estimate D2E/DX2                !
 ! A1    A(2,1,3)              115.358          estimate D2E/DX2                !
 ! A2    A(2,1,18)             122.2255         estimate D2E/DX2                !
 ! A3    A(3,1,18)             122.3727         estimate D2E/DX2                !
 ! A4    A(1,2,14)             117.5187         estimate D2E/DX2                !
 ! A5    A(1,2,15)             121.9468         estimate D2E/DX2                !
 ! A6    A(14,2,15)            118.0334         estimate D2E/DX2                !
 ! A7    A(1,3,4)              111.0554         estimate D2E/DX2                !
 ! A8    A(1,3,5)              106.4117         estimate D2E/DX2                !
 ! A9    A(1,3,6)              111.3632         estimate D2E/DX2                !
 ! A10   A(4,3,5)              107.1066         estimate D2E/DX2                !
 ! A11   A(4,3,6)              110.8501         estimate D2E/DX2                !
 ! A12   A(5,3,6)              109.8638         estimate D2E/DX2                !
 ! A13   A(3,6,7)              109.758          estimate D2E/DX2                !
 ! A14   A(3,6,8)              108.7656         estimate D2E/DX2                !
 ! A15   A(3,6,9)              112.7841         estimate D2E/DX2                !
 ! A16   A(7,6,8)              107.2664         estimate D2E/DX2                !
 ! A17   A(7,6,9)              108.5743         estimate D2E/DX2                !
 ! A18   A(8,6,9)              109.5437         estimate D2E/DX2                !
 ! A19   A(6,9,10)             108.0755         estimate D2E/DX2                !
 ! A20   A(6,9,11)             110.6779         estimate D2E/DX2                !
 ! A21   A(6,9,12)             111.4571         estimate D2E/DX2                !
 ! A22   A(10,9,11)            104.312          estimate D2E/DX2                !
 ! A23   A(10,9,12)            112.5932         estimate D2E/DX2                !
 ! A24   A(11,9,12)            109.5011         estimate D2E/DX2                !
 ! A25   A(9,11,13)            112.6381         estimate D2E/DX2                !
 ! A26   A(9,11,19)            123.866          estimate D2E/DX2                !
 ! A27   A(13,11,19)           123.4485         estimate D2E/DX2                !
 ! A28   A(9,12,16)            109.2966         estimate D2E/DX2                !
 ! A29   A(9,12,17)            109.2566         estimate D2E/DX2                !
 ! A30   A(16,12,17)           106.6239         estimate D2E/DX2                !
 ! A31   A(11,13,22)           107.8185         estimate D2E/DX2                !
 ! A32   A(21,20,22)           120.0            estimate D2E/DX2                !
 ! A33   A(21,20,23)           120.0            estimate D2E/DX2                !
 ! A34   A(22,20,23)           120.0            estimate D2E/DX2                !
 ! A35   A(13,22,20)           109.5            estimate D2E/DX2                !
 ! D1    D(3,1,2,14)           175.3956         estimate D2E/DX2                !
 ! D2    D(3,1,2,15)            13.6985         estimate D2E/DX2                !
 ! D3    D(18,1,2,14)           -6.9584         estimate D2E/DX2                !
 ! D4    D(18,1,2,15)         -168.6555         estimate D2E/DX2                !
 ! D5    D(2,1,3,4)            -13.1106         estimate D2E/DX2                !
 ! D6    D(2,1,3,5)            103.1192         estimate D2E/DX2                !
 ! D7    D(2,1,3,6)           -137.174          estimate D2E/DX2                !
 ! D8    D(18,1,3,4)           169.2473         estimate D2E/DX2                !
 ! D9    D(18,1,3,5)           -74.523          estimate D2E/DX2                !
 ! D10   D(18,1,3,6)            45.1838         estimate D2E/DX2                !
 ! D11   D(1,3,6,7)             69.1563         estimate D2E/DX2                !
 ! D12   D(1,3,6,8)            -47.9168         estimate D2E/DX2                !
 ! D13   D(1,3,6,9)           -169.647          estimate D2E/DX2                !
 ! D14   D(4,3,6,7)            -55.0232         estimate D2E/DX2                !
 ! D15   D(4,3,6,8)           -172.0963         estimate D2E/DX2                !
 ! D16   D(4,3,6,9)             66.1735         estimate D2E/DX2                !
 ! D17   D(5,3,6,7)           -173.2053         estimate D2E/DX2                !
 ! D18   D(5,3,6,8)             69.7217         estimate D2E/DX2                !
 ! D19   D(5,3,6,9)            -52.0085         estimate D2E/DX2                !
 ! D20   D(3,6,9,10)            64.2714         estimate D2E/DX2                !
 ! D21   D(3,6,9,11)           177.9199         estimate D2E/DX2                !
 ! D22   D(3,6,9,12)           -59.9579         estimate D2E/DX2                !
 ! D23   D(7,6,9,10)          -173.8613         estimate D2E/DX2                !
 ! D24   D(7,6,9,11)           -60.2128         estimate D2E/DX2                !
 ! D25   D(7,6,9,12)            61.9094         estimate D2E/DX2                !
 ! D26   D(8,6,9,10)           -57.0179         estimate D2E/DX2                !
 ! D27   D(8,6,9,11)            56.6306         estimate D2E/DX2                !
 ! D28   D(8,6,9,12)           178.7528         estimate D2E/DX2                !
 ! D29   D(6,9,11,13)          164.6808         estimate D2E/DX2                !
 ! D30   D(6,9,11,19)          -17.7508         estimate D2E/DX2                !
 ! D31   D(10,9,11,13)         -79.3081         estimate D2E/DX2                !
 ! D32   D(10,9,11,19)          98.2603         estimate D2E/DX2                !
 ! D33   D(12,9,11,13)          41.4202         estimate D2E/DX2                !
 ! D34   D(12,9,11,19)        -141.0114         estimate D2E/DX2                !
 ! D35   D(6,9,12,16)           75.8423         estimate D2E/DX2                !
 ! D36   D(6,9,12,17)         -167.8369         estimate D2E/DX2                !
 ! D37   D(10,9,12,16)         -45.8018         estimate D2E/DX2                !
 ! D38   D(10,9,12,17)          70.519          estimate D2E/DX2                !
 ! D39   D(11,9,12,16)        -161.3589         estimate D2E/DX2                !
 ! D40   D(11,9,12,17)         -45.038          estimate D2E/DX2                !
 ! D41   D(9,11,13,22)         178.9773         estimate D2E/DX2                !
 ! D42   D(19,11,13,22)          1.3971         estimate D2E/DX2                !
 ! D43   D(11,13,22,20)       -175.0897         estimate D2E/DX2                !
 ! D44   D(21,20,22,13)        179.8573         estimate D2E/DX2                !
 ! D45   D(21,20,22,23)        180.0            estimate D2E/DX2                !
 ! D46   D(23,20,22,13)         -0.1427         estimate D2E/DX2                !
 --------------------------------------------------------------------------------
 Trust Radius=3.00D-01 FncErr=1.00D-07 GrdErr=1.00D-06
 Number of steps in this run=    113 maximum allowed number of steps=    138.
 GradGradGradGradGradGradGradGradGradGradGradGradGradGradGradGradGradGrad

                          Input orientation:                          
 ---------------------------------------------------------------------
 Center     Atomic      Atomic             Coordinates (Angstroms)
 Number     Number       Type             X           Y           Z
 ---------------------------------------------------------------------
      1          6           0       -3.208530    0.458294   -0.048476
      2          7           0       -4.309531   -0.060748    0.579042
      3          6           0       -2.058902   -0.525081   -0.274427
      4          1           0       -2.204482   -1.442153    0.308977
      5          1           0       -2.096233   -0.808109   -1.336974
      6          6           0       -0.703565    0.116676    0.046576
      7          1           0       -0.620762    0.287164    1.125900
      8          1           0       -0.652807    1.093318   -0.440882
      9          6           0        0.481763   -0.743319   -0.404044
     10          1           0        0.452183   -0.817574   -1.510986
     11          6           0        1.803325   -0.037576   -0.108209
     12          7           0        0.470944   -2.058963    0.250542
     13          8           0        2.853183   -0.861980   -0.175795
     14          1           0       -5.059948    0.576547    0.808952
     15          1           0       -4.285231   -0.953334    1.048058
     16          1           0       -0.241207   -2.643737   -0.181523
     17          1           0        1.363534   -2.520899    0.090367
     18          8           0       -3.166609    1.615016   -0.440204
     19          8           0        1.900315    1.160510    0.119582
     20          8           0        5.006779   -0.913438   -0.089628
     21          1           0        5.882666   -0.546624    0.051330
     22          1           0        3.939313   -0.154014    0.072207
     23          1           0        4.907232   -1.832561   -0.348285
 ---------------------------------------------------------------------
                    Distance matrix (angstroms):
                    1          2          3          4          5
     1  C    0.000000
     2  N    1.369448   0.000000
     3  C    1.529616   2.451397   0.000000
     4  H    2.178895   2.532281   1.096620   0.000000
     5  H    2.121605   3.021317   1.100229   1.767168   0.000000
     6  C    2.529938   3.649382   1.533569   2.179806   2.170014
     7  H    2.846926   3.745279   2.165388   2.483157   3.072847
     8  H    2.662510   3.967839   2.150355   3.065713   2.549879
     9  C    3.897251   4.938508   2.553313   2.865777   2.742375
    10  H    4.143380   5.254990   2.814281   3.280279   2.554368
    11  C    5.036680   6.151411   3.896420   4.267247   4.160545
    12  N    4.468168   5.191697   3.004747   2.746229   3.267299
    13  O    6.205135   7.246808   4.924612   5.113862   5.084089
    14  H    2.043750   1.011004   3.375436   3.532536   3.912273
    15  H    2.086712   1.008601   2.624673   2.261571   3.240552
    16  H    4.294800   4.878683   2.793090   2.353475   2.854071
    17  H    5.458813   6.202807   3.978622   3.733928   4.115937
    18  O    1.221971   2.270092   2.415473   3.291389   2.796683
    19  O    5.159617   6.345452   4.321095   4.864060   4.687154
    20  O    8.329145   9.379117   7.078759   7.241596   7.212472
    21  H    9.147113  10.217409   7.948276   8.140659   8.102999
    22  H    7.175036   8.264926   6.019670   6.281845   6.232291
    23  H    8.438216   9.431223   7.088157   7.152683   7.146714
                    6          7          8          9         10
     6  C    0.000000
     7  H    1.095839   0.000000
     8  H    1.092713   1.762304   0.000000
     9  C    1.532205   2.148996   2.159130   0.000000
    10  H    2.152807   3.053658   2.453087   1.109824   0.000000
    11  C    2.516396   2.739467   2.724367   1.527127   2.098038
    12  N    2.480822   2.731737   3.417274   1.469530   2.155082
    13  O    3.695629   3.883714   4.023112   2.385332   2.747637
    14  H    4.446434   4.459885   4.609992   5.824428   6.140788
    15  H    3.869912   3.869526   4.427215   4.987679   5.386114
    16  H    2.808146   3.231656   3.768589   2.045431   2.362865
    17  H    3.351361   3.590958   4.172580   2.044933   2.509225
    18  O    2.923793   3.270659   2.567366   4.344384   4.489958
    19  O    2.806263   2.851533   2.614779   2.431263   2.944258
    20  O    5.804112   5.881171   6.015095   4.539116   4.772190
    21  H    6.619549   6.644131   6.756041   5.423635   5.657243
    22  H    4.650833   4.700978   4.786091   3.539597   3.886758
    23  H    5.952855   6.101243   6.283579   4.557886   4.714820
                   11         12         13         14         15
    11  C    0.000000
    12  N    2.447437   0.000000
    13  O    1.336567   2.699925   0.000000
    14  H    6.951464   6.152114   8.102884   0.000000
    15  H    6.264669   4.947691   7.243143   1.731443   0.000000
    16  H    3.313240   1.017743   3.570706   5.879756   4.552303
    17  H    2.529771   1.017722   2.245419   7.167402   5.939948
    18  O    5.248002   5.216037   6.514854   2.494703   3.172170
    19  O    1.223399   3.524948   2.255143   7.018654   6.602377
    20  O    3.321084   4.690602   2.155934  10.215992   9.361484
    21  H    4.114074   5.622597   3.054309  11.026165  10.224726
    22  H    2.146754   3.961088   1.320000   9.058875   8.320717
    23  H    3.593584   4.482243   2.278354  10.319286   9.339389
                   16         17         18         19         20
    16  H    0.000000
    17  H    1.632240   0.000000
    18  O    5.173188   6.157069   0.000000
    19  O    4.375966   3.720452   5.117974   0.000000
    20  O    5.526639   3.986172   8.562725   3.741009   0.000000
    21  H    6.477185   4.931718   9.316849   4.333369   0.960000
    22  H    4.872356   3.498159   7.340719   2.426465   1.320000
    23  H    5.214617   3.636484   8.779586   4.268363   0.960000
                   21         22         23
    21  H    0.000000
    22  H    1.982725   0.000000
    23  H    1.662769   1.982725   0.000000
 Stoichiometry    C5H12N2O4
 Framework group  C1[X(C5H12N2O4)]
 Deg. of freedom    63
 Full point group                 C1      NOp   1
 Largest Abelian subgroup         C1      NOp   1
 Largest concise Abelian subgroup C1      NOp   1
                         Standard orientation:                         
 ---------------------------------------------------------------------
 Center     Atomic      Atomic             Coordinates (Angstroms)
 Number     Number       Type             X           Y           Z
 ---------------------------------------------------------------------
      1          6           0       -3.333200   -0.211336    0.063973
      2          7           0       -4.359389    0.509708   -0.485953
      3          6           0       -2.045899    0.573470    0.322158
      4          1           0       -2.067546    1.544411   -0.187135
      5          1           0       -2.016629    0.775671    1.403252
      6          6           0       -0.808098   -0.232130   -0.090987
      7          1           0       -0.776146   -0.328662   -1.182098
      8          1           0       -0.891212   -1.240565    0.321534
      9          6           0        0.501394    0.408366    0.380869
     10          1           0        0.508463    0.400086    1.490640
     11          6           0        1.696912   -0.457372   -0.010733
     12          7           0        0.670314    1.758288   -0.174735
     13          8           0        2.858429    0.197465    0.081345
     14          1           0       -5.200877    0.008356   -0.736297
     15          1           0       -4.214073    1.422870   -0.888811
     16          1           0        0.062567    2.405333    0.323037
     17          1           0        1.624841    2.071373   -0.011596
     18          8           0       -3.453878   -1.388669    0.368174
     19          8           0        1.610387   -1.635493   -0.328931
     20          8           0        4.993407   -0.058985   -0.074075
     21          1           0        5.801946   -0.537497   -0.271285
     22          1           0        3.821934   -0.639860   -0.254730
     23          1           0        5.036848    0.841980    0.254519
 ---------------------------------------------------------------------
 Rotational constants (GHZ):      3.0193096      0.3574943      0.3272445
 Standard basis: 6-31G(d) (6D, 7F)
 There are   189 symmetry adapted cartesian basis functions of A   symmetry.
 There are   189 symmetry adapted basis functions of A   symmetry.
   189 basis functions,   356 primitive gaussians,   189 cartesian basis functions
    44 alpha electrons       44 beta electrons
       nuclear repulsion energy       630.8064175354 Hartrees.
 NAtoms=   23 NActive=   23 NUniq=   23 SFac= 1.00D+00 NAtFMM=   60 NAOKFM=F Big=F
 Integral buffers will be    131072 words long.
 Raffenetti 2 integral format.
 Two-electron integral symmetry is turned on.
 One-electron integrals computed using PRISM.
 NBasis=   189 RedAO= T EigKep=  2.14D-03  NBF=   189
 NBsUse=   189 1.00D-06 EigRej= -1.00D+00 NBFU=   189
 ExpMin= 1.61D-01 ExpMax= 5.48D+03 ExpMxC= 8.25D+02 IAcc=1 IRadAn=         1 AccDes= 0.00D+00
 Harris functional with IExCor=  402 and IRadAn=       1 diagonalized for initial guess.
 HarFok:  IExCor=  402 AccDes= 0.00D+00 IRadAn=         1 IDoV= 1 UseB2=F ITyADJ=14
 ICtDFT=  3500011 ScaDFX=  1.000000  1.000000  1.000000  1.000000
 FoFCou: FMM=F IPFlag=           0 FMFlag=      100000 FMFlg1=           0
         NFxFlg=           0 DoJE=T BraDBF=F KetDBF=T FulRan=T
         wScrn=  0.000000 ICntrl=     500 IOpCl=  0 I1Cent=   200000004 NGrid=           0
         NMat0=    1 NMatS0=      1 NMatT0=    0 NMatD0=    1 NMtDS0=    0 NMtDT0=    0
 Petite list used in FoFCou.
 Requested convergence on RMS density matrix=1.00D-08 within 128 cycles.
 Requested convergence on MAX density matrix=1.00D-06.
 Requested convergence on             energy=1.00D-06.
 No special actions if energy rises.
 Integral accuracy reduced to 1.0D-05 until final iterations.
 Initial convergence to 1.0D-05 achieved.  Increase integral accuracy.
 SCF Done:  E(RB3LYP) =  -608.095869070     A.U. after   15 cycles
            NFock= 15  Conv=0.72D-08     -V/T= 2.0089

 **********************************************************************

            Population analysis using the SCF density.

 **********************************************************************

 Orbital symmetries:
       Occupied  (A) (A) (A) (A) (A) (A) (A) (A) (A) (A) (A) (A)
                 (A) (A) (A) (A) (A) (A) (A) (A) (A) (A) (A) (A)
                 (A) (A) (A) (A) (A) (A) (A) (A) (A) (A) (A) (A)
                 (A) (A) (A) (A) (A) (A) (A) (A)
       Virtual   (A) (A) (A) (A) (A) (A) (A) (A) (A) (A) (A) (A)
                 (A) (A) (A) (A) (A) (A) (A) (A) (A) (A) (A) (A)
                 (A) (A) (A) (A) (A) (A) (A) (A) (A) (A) (A) (A)
                 (A) (A) (A) (A) (A) (A) (A) (A) (A) (A) (A) (A)
                 (A) (A) (A) (A) (A) (A) (A) (A) (A) (A) (A) (A)
                 (A) (A) (A) (A) (A) (A) (A) (A) (A) (A) (A) (A)
                 (A) (A) (A) (A) (A) (A) (A) (A) (A) (A) (A) (A)
                 (A) (A) (A) (A) (A) (A) (A) (A) (A) (A) (A) (A)
                 (A) (A) (A) (A) (A) (A) (A) (A) (A) (A) (A) (A)
                 (A) (A) (A) (A) (A) (A) (A) (A) (A) (A) (A) (A)
                 (A) (A) (A) (A) (A) (A) (A) (A) (A) (A) (A) (A)
                 (A) (A) (A) (A) (A) (A) (A) (A) (A) (A) (A) (A)
                 (A)
 The electronic state is 1-A.
 Alpha  occ. eigenvalues --  -19.22847 -19.12866 -19.09473 -19.09282 -14.34610
 Alpha  occ. eigenvalues --  -14.29919 -10.27373 -10.27214 -10.20233 -10.18090
 Alpha  occ. eigenvalues --  -10.16016  -1.09569  -1.03221  -1.01416  -0.94508
 Alpha  occ. eigenvalues --   -0.89023  -0.86955  -0.76321  -0.68970  -0.64011
 Alpha  occ. eigenvalues --   -0.61289  -0.56957  -0.55263  -0.52527  -0.49526
 Alpha  occ. eigenvalues --   -0.47406  -0.45930  -0.44634  -0.42878  -0.42160
 Alpha  occ. eigenvalues --   -0.39522  -0.39133  -0.38590  -0.37581  -0.36321
 Alpha  occ. eigenvalues --   -0.34452  -0.33249  -0.32311  -0.29111  -0.26074
 Alpha  occ. eigenvalues --   -0.25502  -0.23352  -0.23111  -0.22076
 Alpha virt. eigenvalues --    0.00297   0.04009   0.05096   0.08043   0.08710
 Alpha virt. eigenvalues --    0.10442   0.11275   0.13033   0.14681   0.16737
 Alpha virt. eigenvalues --    0.16996   0.17668   0.20088   0.22467   0.24584
 Alpha virt. eigenvalues --    0.25533   0.26298   0.29368   0.29695   0.33900
 Alpha virt. eigenvalues --    0.38965   0.40525   0.42939   0.54850   0.55625
 Alpha virt. eigenvalues --    0.57296   0.57942   0.59180   0.61238   0.63161
 Alpha virt. eigenvalues --    0.65172   0.66509   0.67472   0.68600   0.70474
 Alpha virt. eigenvalues --    0.71073   0.71852   0.73604   0.73916   0.74616
 Alpha virt. eigenvalues --    0.76415   0.76974   0.78792   0.80728   0.82673
 Alpha virt. eigenvalues --    0.85233   0.85375   0.88154   0.89089   0.89523
 Alpha virt. eigenvalues --    0.91090   0.91789   0.91899   0.92150   0.95155
 Alpha virt. eigenvalues --    0.97790   0.98219   0.99595   1.00050   1.01786
 Alpha virt. eigenvalues --    1.04332   1.04710   1.07201   1.10464   1.14309
 Alpha virt. eigenvalues --    1.15493   1.17204   1.20822   1.21039   1.25146
 Alpha virt. eigenvalues --    1.26119   1.30740   1.35847   1.36524   1.42282
 Alpha virt. eigenvalues --    1.46606   1.49011   1.51209   1.61351   1.61480
 Alpha virt. eigenvalues --    1.63562   1.64241   1.66761   1.68016   1.68968
 Alpha virt. eigenvalues --    1.72903   1.74484   1.77214   1.77932   1.80032
 Alpha virt. eigenvalues --    1.83103   1.84094   1.85976   1.87564   1.88329
 Alpha virt. eigenvalues --    1.91431   1.93950   1.94606   1.97116   1.98123
 Alpha virt. eigenvalues --    1.99998   2.02421   2.03724   2.05439   2.08069
 Alpha virt. eigenvalues --    2.12302   2.13779   2.17381   2.20989   2.22551
 Alpha virt. eigenvalues --    2.26184   2.28515   2.33082   2.36428   2.40812
 Alpha virt. eigenvalues --    2.42206   2.43660   2.47369   2.49611   2.54442
 Alpha virt. eigenvalues --    2.58260   2.61196   2.62969   2.65977   2.68675
 Alpha virt. eigenvalues --    2.70849   2.71313   2.85728   2.86210   2.93205
 Alpha virt. eigenvalues --    2.99776   3.03155   3.09019   3.15929   3.64773
 Alpha virt. eigenvalues --    3.79951   3.81764   3.92719   4.11000   4.18550
 Alpha virt. eigenvalues --    4.21824   4.35357   4.43130   4.53716   4.66300
          Condensed to atoms (all electrons):
               1          2          3          4          5          6
     1  C    4.298625   0.274594   0.315648  -0.023635  -0.024023  -0.024405
     2  N    0.274594   7.102178  -0.117861   0.003437   0.001267   0.000504
     3  C    0.315648  -0.117861   5.373137   0.326443   0.352409   0.327630
     4  H   -0.023635   0.003437   0.326443   0.619878  -0.034770  -0.031989
     5  H   -0.024023   0.001267   0.352409  -0.034770   0.576731  -0.034196
     6  C   -0.024405   0.000504   0.327630  -0.031989  -0.034196   5.060867
     7  H   -0.001381   0.000464  -0.042275  -0.003748   0.005487   0.368284
     8  H   -0.002473   0.000671  -0.045608   0.005573  -0.002099   0.361653
     9  C    0.002762  -0.000064  -0.032193  -0.005991  -0.004275   0.343720
    10  H   -0.000050  -0.000001  -0.005724   0.000745   0.006433  -0.058190
    11  C   -0.000044   0.000000   0.004059  -0.000165   0.000048  -0.031987
    12  N   -0.000027  -0.000003  -0.006824   0.007390  -0.000726  -0.063456
    13  O    0.000000   0.000000  -0.000031   0.000000  -0.000001   0.002822
    14  H   -0.005324   0.283133   0.008935  -0.000201  -0.000258  -0.000185
    15  H   -0.010469   0.292386   0.004316   0.002743  -0.000084  -0.000251
    16  H   -0.000023   0.000005   0.003333  -0.000263   0.000554  -0.003178
    17  H    0.000004   0.000000   0.000030  -0.000141  -0.000043   0.006277
    18  O    0.606923  -0.093362  -0.093440   0.003263  -0.000987  -0.001663
    19  O   -0.000003   0.000000   0.000610  -0.000005  -0.000001   0.003410
    20  O    0.000000   0.000000   0.000000   0.000000   0.000000   0.000001
    21  H    0.000000   0.000000   0.000000   0.000000   0.000000   0.000000
    22  H    0.000000   0.000000   0.000001   0.000000   0.000000  -0.000144
    23  H    0.000000   0.000000   0.000000   0.000000   0.000000  -0.000001
               7          8          9         10         11         12
     1  C   -0.001381  -0.002473   0.002762  -0.000050  -0.000044  -0.000027
     2  N    0.000464   0.000671  -0.000064  -0.000001   0.000000  -0.000003
     3  C   -0.042275  -0.045608  -0.032193  -0.005724   0.004059  -0.006824
     4  H   -0.003748   0.005573  -0.005991   0.000745  -0.000165   0.007390
     5  H    0.005487  -0.002099  -0.004275   0.006433   0.000048  -0.000726
     6  C    0.368284   0.361653   0.343720  -0.058190  -0.031987  -0.063456
     7  H    0.580732  -0.024894  -0.037735   0.006740  -0.004034   0.002500
     8  H   -0.024894   0.532667  -0.029977   0.000753  -0.002614   0.004171
     9  C   -0.037735  -0.029977   5.146449   0.351056   0.313716   0.265596
    10  H    0.006740   0.000753   0.351056   0.659884  -0.031806  -0.047711
    11  C   -0.004034  -0.002614   0.313716  -0.031806   4.299017  -0.028907
    12  N    0.002500   0.004171   0.265596  -0.047711  -0.028907   7.017039
    13  O    0.000025   0.000122  -0.098041  -0.000322   0.283379  -0.007258
    14  H   -0.000022  -0.000012   0.000002   0.000000   0.000000   0.000000
    15  H   -0.000051  -0.000026  -0.000014  -0.000001   0.000000  -0.000002
    16  H   -0.000280  -0.000204  -0.028014  -0.007691   0.003999   0.291917
    17  H   -0.000095  -0.000196  -0.029286  -0.000455  -0.013151   0.295867
    18  O    0.000157   0.012004   0.000146   0.000014   0.000000  -0.000003
    19  O    0.002311   0.007390  -0.087235   0.000884   0.557593   0.001257
    20  O    0.000000   0.000000  -0.000298   0.000008   0.003073  -0.000010
    21  H    0.000000   0.000000   0.000018  -0.000001  -0.000178   0.000000
    22  H   -0.000011  -0.000007   0.006661  -0.000279   0.004947   0.000014
    23  H    0.000000   0.000000   0.000113  -0.000007  -0.000166  -0.000014
              13         14         15         16         17         18
     1  C    0.000000  -0.005324  -0.010469  -0.000023   0.000004   0.606923
     2  N    0.000000   0.283133   0.292386   0.000005   0.000000  -0.093362
     3  C   -0.000031   0.008935   0.004316   0.003333   0.000030  -0.093440
     4  H    0.000000  -0.000201   0.002743  -0.000263  -0.000141   0.003263
     5  H   -0.000001  -0.000258  -0.000084   0.000554  -0.000043  -0.000987
     6  C    0.002822  -0.000185  -0.000251  -0.003178   0.006277  -0.001663
     7  H    0.000025  -0.000022  -0.000051  -0.000280  -0.000095   0.000157
     8  H    0.000122  -0.000012  -0.000026  -0.000204  -0.000196   0.012004
     9  C   -0.098041   0.000002  -0.000014  -0.028014  -0.029286   0.000146
    10  H   -0.000322   0.000000  -0.000001  -0.007691  -0.000455   0.000014
    11  C    0.283379   0.000000   0.000000   0.003999  -0.013151   0.000000
    12  N   -0.007258   0.000000  -0.000002   0.291917   0.295867  -0.000003
    13  O    8.506136   0.000000   0.000000   0.000282   0.022002   0.000000
    14  H    0.000000   0.391398  -0.021028   0.000000   0.000000   0.007585
    15  H    0.000000  -0.021028   0.398071  -0.000004   0.000000   0.003595
    16  H    0.000282   0.000000  -0.000004   0.480952  -0.029657   0.000001
    17  H    0.022002   0.000000   0.000000  -0.029657   0.442418   0.000000
    18  O    0.000000   0.007585   0.003595   0.000001   0.000000   8.059746
    19  O   -0.083208   0.000000   0.000000  -0.000099   0.000272   0.000000
    20  O   -0.131912   0.000000   0.000000   0.000000   0.000087   0.000000
    21  H    0.006370   0.000000   0.000000   0.000000  -0.000003   0.000000
    22  H    0.149185   0.000000   0.000000   0.000013  -0.000555   0.000000
    23  H    0.015127   0.000000   0.000000   0.000001   0.000072   0.000000
              19         20         21         22         23
     1  C   -0.000003   0.000000   0.000000   0.000000   0.000000
     2  N    0.000000   0.000000   0.000000   0.000000   0.000000
     3  C    0.000610   0.000000   0.000000   0.000001   0.000000
     4  H   -0.000005   0.000000   0.000000   0.000000   0.000000
     5  H   -0.000001   0.000000   0.000000   0.000000   0.000000
     6  C    0.003410   0.000001   0.000000  -0.000144  -0.000001
     7  H    0.002311   0.000000   0.000000  -0.000011   0.000000
     8  H    0.007390   0.000000   0.000000  -0.000007   0.000000
     9  C   -0.087235  -0.000298   0.000018   0.006661   0.000113
    10  H    0.000884   0.000008  -0.000001  -0.000279  -0.000007
    11  C    0.557593   0.003073  -0.000178   0.004947  -0.000166
    12  N    0.001257  -0.000010   0.000000   0.000014  -0.000014
    13  O   -0.083208  -0.131912   0.006370   0.149185   0.015127
    14  H    0.000000   0.000000   0.000000   0.000000   0.000000
    15  H    0.000000   0.000000   0.000000   0.000000   0.000000
    16  H   -0.000099   0.000000   0.000000   0.000013   0.000001
    17  H    0.000272   0.000087  -0.000003  -0.000555   0.000072
    18  O    0.000000   0.000000   0.000000   0.000000   0.000000
    19  O    8.104155  -0.000286   0.000038   0.010736   0.000084
    20  O   -0.000286   8.366133   0.233763   0.023377   0.254845
    21  H    0.000038   0.233763   0.332931   0.004668  -0.009409
    22  H    0.010736   0.023377   0.004668   0.355423  -0.004494
    23  H    0.000084   0.254845  -0.009409  -0.004494   0.282238
 Mulliken charges:
               1
     1  C    0.593301
     2  N   -0.747347
     3  C   -0.372594
     4  H    0.131437
     5  H    0.158532
     6  C   -0.225524
     7  H    0.147826
     8  H    0.183106
     9  C   -0.077118
    10  H    0.125721
    11  C    0.643221
    12  N   -0.730809
    13  O   -0.664675
    14  H    0.335978
    15  H    0.330819
    16  H    0.288356
    17  H    0.306555
    18  O   -0.503980
    19  O   -0.517902
    20  O   -0.748781
    21  H    0.431804
    22  H    0.450466
    23  H    0.461611
 Sum of Mulliken charges =   0.00000
 Mulliken charges with hydrogens summed into heavy atoms:
               1
     1  C    0.593301
     2  N   -0.080550
     3  C   -0.082626
     6  C    0.105407
     9  C    0.048603
    11  C    0.643221
    12  N   -0.135899
    13  O   -0.214209
    18  O   -0.503980
    19  O   -0.517902
    20  O    0.144633
 Electronic spatial extent (au):  <R**2>=           3179.0208
 Charge=              0.0000 electrons
 Dipole moment (field-independent basis, Debye):
    X=              5.7370    Y=              5.2693    Z=              0.1808  Tot=              7.7917
 Quadrupole moment (field-independent basis, Debye-Ang):
   XX=            -13.6862   YY=            -69.0682   ZZ=            -65.4708
   XY=             -8.2250   XZ=              7.4819   YZ=              2.6351
 Traceless Quadrupole moment (field-independent basis, Debye-Ang):
   XX=             35.7222   YY=            -19.6598   ZZ=            -16.0624
   XY=             -8.2250   XZ=              7.4819   YZ=              2.6351
 Octapole moment (field-independent basis, Debye-Ang**2):
  XXX=            272.2446  YYY=             22.8645  ZZZ=              0.0906  XYY=             23.2229
  XXY=             38.0416  XXZ=            -41.2897  XZZ=              3.2989  YZZ=             -2.0700
  YYZ=              3.4400  XYZ=              6.5200
 Hexadecapole moment (field-independent basis, Debye-Ang**3):
 XXXX=          -1101.7712 YYYY=           -409.3086 ZZZZ=           -113.0886 XXXY=           -148.5175
 XXXZ=            131.7113 YYYX=             -5.0002 YYYZ=              6.3362 ZZZX=              1.4158
 ZZZY=              2.2704 XXYY=           -566.9029 XXZZ=           -543.6177 YYZZ=            -91.1475
 XXYZ=             20.5760 YYXZ=             22.4786 ZZXY=             -6.1309
 N-N= 6.308064175354D+02 E-N=-2.686929864981D+03  KE= 6.027182897550D+02
 Calling FoFJK, ICntrl=      2127 FMM=F ISym2X=0 I1Cent= 0 IOpClX= 0 NMat=1 NMatS=1 NMatT=0.
 ***** Axes restored to original set *****
 -------------------------------------------------------------------
 Center     Atomic                   Forces (Hartrees/Bohr)
 Number     Number              X              Y              Z
 -------------------------------------------------------------------
      1        6           0.001916207   -0.000798630   -0.000883882
      2        7          -0.001440502    0.000002347    0.000415910
      3        6          -0.000773480    0.001071177    0.000496885
      4        1          -0.000186356   -0.000228567    0.000082796
      5        1           0.000042681    0.000003772   -0.000071339
      6        6          -0.000431348   -0.001634880   -0.000703270
      7        1           0.000041804    0.000133136    0.000008403
      8        1           0.000664064   -0.000280770    0.000194644
      9        6          -0.002095936    0.002370512   -0.000680887
     10        1          -0.000984736   -0.000658436   -0.000002723
     11        6           0.012412394   -0.007102397   -0.000207195
     12        7          -0.002041328   -0.001711749    0.000743586
     13        8          -0.002975689    0.056345384    0.014784309
     14        1           0.000065992   -0.000002911    0.000134868
     15        1           0.000170482    0.000128390   -0.000049831
     16        1          -0.000353010   -0.000595075   -0.000150707
     17        1           0.000366561    0.001997659   -0.000445111
     18        8          -0.001058571    0.000315901    0.000136569
     19        8          -0.000121994   -0.002806566   -0.000447621
     20        8           0.039057303    0.035306293    0.011636501
     21        1           0.016435817   -0.014215051   -0.003128731
     22        1          -0.061393172   -0.063633399   -0.020822032
     23        1           0.002682817   -0.004006139   -0.001041140
 -------------------------------------------------------------------
 Cartesian Forces:  Max     0.063633399 RMS     0.014900410

 GradGradGradGradGradGradGradGradGradGradGradGradGradGradGradGradGradGrad
 Berny optimization.
 FormGI is forming the generalized inverse of G from B-inverse, IUseBI=4.
 Internal  Forces:  Max     0.091942369 RMS     0.010687259
 Search for a local minimum.
 Step number   1 out of a maximum of  113
 All quantities printed in internal units (Hartrees-Bohrs-Radians)
 Mixed Optimization -- RFO/linear search
 Second derivative matrix not updated -- first step.
 ITU=  0
     Eigenvalues ---    0.00230   0.00230   0.00230   0.00322   0.00340
     Eigenvalues ---    0.00374   0.00407   0.00772   0.00940   0.01066
     Eigenvalues ---    0.02096   0.02442   0.02531   0.03520   0.04086
     Eigenvalues ---    0.04457   0.04476   0.04827   0.05105   0.05348
     Eigenvalues ---    0.06509   0.08313   0.09157   0.12192   0.12688
     Eigenvalues ---    0.16000   0.16000   0.16000   0.16000   0.16000
     Eigenvalues ---    0.16000   0.16000   0.17452   0.17633   0.17633
     Eigenvalues ---    0.18310   0.21925   0.21938   0.24981   0.24986
     Eigenvalues ---    0.25000   0.25000   0.25000   0.29096   0.29221
     Eigenvalues ---    0.29459   0.29690   0.32619   0.33657   0.34059
     Eigenvalues ---    0.34147   0.34501   0.35797   0.44700   0.44704
     Eigenvalues ---    0.45805   0.46208   0.51083   0.55473   0.55473
     Eigenvalues ---    0.57981   0.93893   0.94515
 RFO step:  Lambda=-4.34215319D-02 EMin= 2.30000000D-03
 Linear search not attempted -- first point.
 Maximum step size (   0.300) exceeded in Quadratic search.
    -- Step size scaled by   0.739
 Iteration  1 RMS(Cart)=  0.07687456 RMS(Int)=  0.00632576
 Iteration  2 RMS(Cart)=  0.02173088 RMS(Int)=  0.00031730
 Iteration  3 RMS(Cart)=  0.00060033 RMS(Int)=  0.00000216
 Iteration  4 RMS(Cart)=  0.00000018 RMS(Int)=  0.00000216
 Variable       Old X    -DE/DX   Delta X   Delta X   Delta X     New X
                                 (Linear)    (Quad)   (Total)
    R1        2.58788   0.00115   0.00000   0.00153   0.00153   2.58941
    R2        2.89056   0.00000   0.00000  -0.00001  -0.00001   2.89055
    R3        2.30919   0.00022   0.00000   0.00016   0.00016   2.30936
    R4        1.91052  -0.00002   0.00000  -0.00003  -0.00003   1.91049
    R5        1.90598  -0.00013   0.00000  -0.00020  -0.00020   1.90578
    R6        2.07231   0.00026   0.00000   0.00050   0.00050   2.07281
    R7        2.07913   0.00007   0.00000   0.00013   0.00013   2.07926
    R8        2.89803   0.00086   0.00000   0.00189   0.00189   2.89992
    R9        2.07084   0.00003   0.00000   0.00006   0.00006   2.07090
   R10        2.06493  -0.00031   0.00000  -0.00058  -0.00058   2.06434
   R11        2.89545  -0.00003   0.00000  -0.00007  -0.00007   2.89538
   R12        2.09726   0.00007   0.00000   0.00015   0.00015   2.09741
   R13        2.88585   0.00538   0.00000   0.01168   0.01168   2.89753
   R14        2.77701   0.00036   0.00000   0.00066   0.00066   2.77766
   R15        2.52575  -0.01098   0.00000  -0.01302  -0.01302   2.51272
   R16        2.31189  -0.00284   0.00000  -0.00214  -0.00214   2.30975
   R17        1.92325   0.00065   0.00000   0.00099   0.00099   1.92424
   R18        1.92322  -0.00052   0.00000  -0.00078  -0.00078   1.92244
   R19        2.49444  -0.03012   0.00000  -0.10136  -0.10136   2.39308
   R20        1.81414   0.00910   0.00000   0.01126   0.01126   1.82539
   R21        2.49444   0.03630   0.00000   0.12215   0.12215   2.61659
   R22        1.81414   0.00384   0.00000   0.00474   0.00474   1.81888
    A1        2.01338   0.00004   0.00000   0.00010   0.00010   2.01348
    A2        2.13324  -0.00125   0.00000  -0.00316  -0.00316   2.13007
    A3        2.13581   0.00121   0.00000   0.00306   0.00306   2.13887
    A4        2.05109   0.00011   0.00000   0.00027   0.00027   2.05136
    A5        2.12837  -0.00024   0.00000  -0.00100  -0.00100   2.12737
    A6        2.06007   0.00007   0.00000   0.00013   0.00013   2.06020
    A7        1.93828  -0.00067   0.00000  -0.00214  -0.00214   1.93614
    A8        1.85723  -0.00041   0.00000  -0.00069  -0.00069   1.85654
    A9        1.94365   0.00161   0.00000   0.00477   0.00477   1.94842
   A10        1.86936   0.00019   0.00000  -0.00031  -0.00032   1.86905
   A11        1.93470  -0.00042   0.00000  -0.00112  -0.00112   1.93358
   A12        1.91748  -0.00037   0.00000  -0.00069  -0.00069   1.91680
   A13        1.91564  -0.00035   0.00000  -0.00078  -0.00078   1.91486
   A14        1.89832   0.00022   0.00000   0.00195   0.00195   1.90027
   A15        1.96845   0.00096   0.00000   0.00295   0.00295   1.97141
   A16        1.87215   0.00008   0.00000  -0.00059  -0.00060   1.87156
   A17        1.89498  -0.00023   0.00000  -0.00082  -0.00082   1.89416
   A18        1.91190  -0.00073   0.00000  -0.00290  -0.00290   1.90899
   A19        1.88627  -0.00021   0.00000  -0.00154  -0.00156   1.88472
   A20        1.93169   0.00102   0.00000   0.00418   0.00418   1.93587
   A21        1.94529  -0.00074   0.00000  -0.00274  -0.00274   1.94255
   A22        1.82059   0.00015   0.00000   0.00245   0.00245   1.82304
   A23        1.96512  -0.00008   0.00000  -0.00235  -0.00235   1.96277
   A24        1.91115  -0.00005   0.00000   0.00045   0.00046   1.91161
   A25        1.96591   0.00465   0.00000   0.01170   0.01170   1.97761
   A26        2.16187  -0.00220   0.00000  -0.00554  -0.00554   2.15633
   A27        2.15458  -0.00245   0.00000  -0.00618  -0.00618   2.14840
   A28        1.90759   0.00095   0.00000   0.00318   0.00318   1.91077
   A29        1.90689  -0.00327   0.00000  -0.01215  -0.01215   1.89474
   A30        1.86094   0.00093   0.00000   0.00282   0.00283   1.86377
   A31        1.88179   0.00294   0.00000   0.01069   0.01069   1.89248
   A32        2.09440   0.02229   0.00000   0.08102   0.08102   2.17541
   A33        2.09440  -0.01395   0.00000  -0.05072  -0.05072   2.04367
   A34        2.09440  -0.00833   0.00000  -0.03029  -0.03029   2.06410
   A35        1.91114   0.09194   0.00000   0.23170   0.23170   2.14283
    D1        3.06123  -0.00015   0.00000  -0.00149  -0.00149   3.05974
    D2        0.23908   0.00004   0.00000   0.00059   0.00059   0.23968
    D3       -0.12145  -0.00012   0.00000  -0.00146  -0.00146  -0.12291
    D4       -2.94359   0.00008   0.00000   0.00062   0.00062  -2.94297
    D5       -0.22882   0.00025   0.00000   0.00232   0.00232  -0.22650
    D6        1.79977  -0.00010   0.00000   0.00045   0.00045   1.80022
    D7       -2.39414   0.00011   0.00000   0.00187   0.00187  -2.39227
    D8        2.95392   0.00028   0.00000   0.00245   0.00245   2.95637
    D9       -1.30067  -0.00007   0.00000   0.00058   0.00058  -1.30010
   D10        0.78861   0.00014   0.00000   0.00200   0.00200   0.79060
   D11        1.20700  -0.00014   0.00000  -0.00122  -0.00122   1.20579
   D12       -0.83631  -0.00017   0.00000  -0.00119  -0.00119  -0.83749
   D13       -2.96090  -0.00003   0.00000  -0.00083  -0.00083  -2.96173
   D14       -0.96034  -0.00014   0.00000  -0.00109  -0.00109  -0.96142
   D15       -3.00365  -0.00017   0.00000  -0.00106  -0.00106  -3.00470
   D16        1.15495  -0.00003   0.00000  -0.00070  -0.00070   1.15425
   D17       -3.02300   0.00011   0.00000   0.00042   0.00042  -3.02258
   D18        1.21687   0.00008   0.00000   0.00045   0.00045   1.21732
   D19       -0.90772   0.00021   0.00000   0.00081   0.00081  -0.90691
   D20        1.12175  -0.00030   0.00000  -0.00257  -0.00257   1.11918
   D21        3.10529   0.00029   0.00000   0.00166   0.00166   3.10695
   D22       -1.04646   0.00042   0.00000   0.00328   0.00327  -1.04319
   D23       -3.03445  -0.00027   0.00000  -0.00220  -0.00220  -3.03665
   D24       -1.05091   0.00032   0.00000   0.00204   0.00204  -1.04887
   D25        1.08052   0.00045   0.00000   0.00365   0.00365   1.08417
   D26       -0.99515  -0.00072   0.00000  -0.00499  -0.00499  -1.00013
   D27        0.98839  -0.00013   0.00000  -0.00075  -0.00075   0.98764
   D28        3.11983   0.00001   0.00000   0.00086   0.00086   3.12069
   D29        2.87422  -0.00015   0.00000   0.00006   0.00006   2.87428
   D30       -0.30981  -0.00021   0.00000  -0.00068  -0.00068  -0.31049
   D31       -1.38419   0.00016   0.00000   0.00155   0.00155  -1.38263
   D32        1.71497   0.00011   0.00000   0.00081   0.00081   1.71577
   D33        0.72292   0.00013   0.00000   0.00040   0.00040   0.72332
   D34       -2.46111   0.00008   0.00000  -0.00034  -0.00034  -2.46146
   D35        1.32370  -0.00024   0.00000   0.00050   0.00051   1.32420
   D36       -2.92931  -0.00044   0.00000  -0.00116  -0.00116  -2.93047
   D37       -0.79939   0.00061   0.00000   0.00620   0.00619  -0.79320
   D38        1.23079   0.00042   0.00000   0.00453   0.00453   1.23531
   D39       -2.81624   0.00051   0.00000   0.00427   0.00427  -2.81197
   D40       -0.78606   0.00031   0.00000   0.00260   0.00260  -0.78346
   D41        3.12374  -0.00031   0.00000  -0.00344  -0.00344   3.12030
   D42        0.02438  -0.00026   0.00000  -0.00272  -0.00272   0.02167
   D43       -3.05589  -0.00001   0.00000  -0.00021  -0.00021  -3.05611
   D44        3.13910   0.00009   0.00000   0.00147   0.00147   3.14058
   D45        3.14159   0.00001   0.00000   0.00008   0.00008  -3.14151
   D46       -0.00249   0.00009   0.00000   0.00139   0.00139  -0.00110
         Item               Value     Threshold  Converged?
 Maximum Force            0.091942     0.000450     NO 
 RMS     Force            0.010687     0.000300     NO 
 Maximum Displacement     0.595800     0.001800     NO 
 RMS     Displacement     0.094581     0.001200     NO 
 Predicted change in Energy=-2.219521D-02
 GradGradGradGradGradGradGradGradGradGradGradGradGradGradGradGradGradGrad

                          Input orientation:                          
 ---------------------------------------------------------------------
 Center     Atomic      Atomic             Coordinates (Angstroms)
 Number     Number       Type             X           Y           Z
 ---------------------------------------------------------------------
      1          6           0       -3.222181    0.486491   -0.038042
      2          7           0       -4.328047   -0.016828    0.595469
      3          6           0       -2.089468   -0.514228   -0.273062
      4          1           0       -2.249064   -1.430458    0.308490
      5          1           0       -2.137981   -0.793517   -1.336218
      6          6           0       -0.718401    0.098847    0.041934
      7          1           0       -0.626580    0.264165    1.121366
      8          1           0       -0.648355    1.075620   -0.442168
      9          6           0        0.449144   -0.780830   -0.416924
     10          1           0        0.410120   -0.852171   -1.523843
     11          6           0        1.793094   -0.103200   -0.124267
     12          7           0        0.411846   -2.098997    0.232369
     13          8           0        2.828363   -0.934415   -0.197319
     14          1           0       -5.066502    0.631693    0.832537
     15          1           0       -4.313837   -0.910493    1.062620
     16          1           0       -0.312515   -2.669780   -0.199336
     17          1           0        1.297488   -2.569412    0.061285
     18          8           0       -3.168000    1.643964   -0.426306
     19          8           0        1.911232    1.091254    0.106516
     20          8           0        5.150327   -0.834104   -0.064011
     21          1           0        5.974056   -0.358784    0.105142
     22          1           0        3.886176   -0.277722    0.033901
     23          1           0        5.222515   -1.759679   -0.318033
 ---------------------------------------------------------------------
                    Distance matrix (angstroms):
                    1          2          3          4          5
     1  C    0.000000
     2  N    1.370258   0.000000
     3  C    1.529611   2.452139   0.000000
     4  H    2.177553   2.530390   1.096883   0.000000
     5  H    2.121125   3.021762   1.100299   1.767230   0.000000
     6  C    2.534872   3.653673   1.534571   2.180082   2.170444
     7  H    2.851456   3.749184   2.165726   2.482936   3.072905
     8  H    2.671137   3.976213   2.152445   3.066951   2.551859
     9  C    3.902343   4.942691   2.556624   2.868549   2.745629
    10  H    4.146472   5.257328   2.815421   3.280720   2.555673
    11  C    5.050560   6.163915   3.907093   4.276440   4.171177
    12  N    4.468112   5.189784   3.003919   2.744664   3.265941
    13  O    6.217187   7.258421   4.936330   5.126613   5.097207
    14  H    2.044630   1.010988   3.376124   3.530588   3.912922
    15  H    2.086800   1.008498   2.624670   2.258841   3.240749
    16  H    4.295837   4.877946   2.794531   2.354576   2.853978
    17  H    5.456722   6.200619   3.975807   3.733143   4.112088
    18  O    1.222058   2.268912   2.417541   3.291875   2.798248
    19  O    5.170934   6.355747   4.327500   4.869075   4.693610
    20  O    8.476057   9.536374   7.249873   7.432724   7.398622
    21  H    9.236112  10.319432   8.073885   8.295152   8.250555
    22  H    7.149681   8.237529   5.988196   6.248630   6.199496
    23  H    8.742801   9.751167   7.417430   7.505026   7.493136
                    6          7          8          9         10
     6  C    0.000000
     7  H    1.095872   0.000000
     8  H    1.092404   1.761696   0.000000
     9  C    1.532170   2.148380   2.156744   0.000000
    10  H    2.151663   3.052554   2.450871   1.109901   0.000000
    11  C    2.525085   2.746158   2.729716   1.533308   2.105324
    12  N    2.478759   2.730051   3.414267   1.469877   2.153801
    13  O    3.701946   3.887435   4.023401   2.394263   2.759407
    14  H    4.451400   4.464460   4.619737   5.829127   6.143921
    15  H    3.871399   3.870289   4.432244   4.989174   5.385997
    16  H    2.808603   3.232788   3.768259   2.048317   2.362249
    17  H    3.344218   3.585382   4.162454   2.036516   2.499794
    18  O    2.933797   3.279931   2.582998   4.354703   4.498691
    19  O    2.811407   2.855606   2.617782   2.432363   2.947594
    20  O    5.943366   5.998664   6.116761   4.714712   4.959940
    21  H    6.708383   6.707397   6.798043   5.565548   5.818454
    22  H    4.619957   4.673456   4.756064   3.502792   3.852211
    23  H    6.235237   6.354505   6.520847   4.873705   5.043481
                   11         12         13         14         15
    11  C    0.000000
    12  N    2.453210   0.000000
    13  O    1.329675   2.716696   0.000000
    14  H    6.964883   6.150542   8.114319   0.000000
    15  H    6.273359   4.943070   7.252519   1.731409   0.000000
    16  H    3.320627   1.018264   3.588400   5.879190   4.549527
    17  H    2.522352   1.017311   2.254700   7.165352   5.936468
    18  O    5.268421   5.221006   6.531220   2.492727   3.170976
    19  O    1.222267   3.527279   2.244277   7.030439   6.608526
    20  O    3.436403   4.913349   2.327951  10.360307   9.531293
    21  H    4.195044   5.829469   3.212199  11.108738  10.347072
    22  H    2.106292   3.927773   1.266364   9.034118   8.288479
    23  H    3.813450   4.853928   2.535271  10.625740   9.673125
                   16         17         18         19         20
    16  H    0.000000
    17  H    1.634046   0.000000
    18  O    5.178194   6.158804   0.000000
    19  O    4.379952   3.712035   5.136923   0.000000
    20  O    5.764605   4.227454   8.687154   3.771979   0.000000
    21  H    6.704803   5.172919   9.373933   4.313833   0.965956
    22  H    4.837908   3.457441   7.325713   2.404116   1.384639
    23  H    5.610609   4.025592   9.055233   4.390064   0.962511
                   21         22         23
    21  H    0.000000
    22  H    2.090667   0.000000
    23  H    1.645113   2.026291   0.000000
 Stoichiometry    C5H12N2O4
 Framework group  C1[X(C5H12N2O4)]
 Deg. of freedom    63
 Full point group                 C1      NOp   1
 Largest Abelian subgroup         C1      NOp   1
 Largest concise Abelian subgroup C1      NOp   1
                         Standard orientation:                         
 ---------------------------------------------------------------------
 Center     Atomic      Atomic             Coordinates (Angstroms)
 Number     Number       Type             X           Y           Z
 ---------------------------------------------------------------------
      1          6           0       -3.351205   -0.243725    0.054868
      2          7           0       -4.385281    0.459001   -0.505908
      3          6           0       -2.077811    0.562015    0.317473
      4          1           0       -2.114030    1.530584   -0.196061
      5          1           0       -2.059288    0.769392    1.397894
      6          6           0       -0.820240   -0.220498   -0.083898
      7          1           0       -0.779489   -0.320568   -1.174430
      8          1           0       -0.883820   -1.228853    0.331461
      9          6           0        0.475020    0.444872    0.392683
     10          1           0        0.473238    0.442567    1.502581
     11          6           0        1.696771   -0.398973    0.010210
     12          7           0        0.617502    1.797034   -0.165791
     13          8           0        2.844930    0.265178    0.103317
     14          1           0       -5.216867   -0.056521   -0.760468
     15          1           0       -4.250272    1.371864   -0.912750
     16          1           0       -0.004125    2.435283    0.327240
     17          1           0        1.566736    2.120022    0.006127
     18          8           0       -3.459444   -1.421291    0.363166
     19          8           0        1.631617   -1.578514   -0.303438
     20          8           0        5.122764   -0.162820   -0.114953
     21          1           0        5.862974   -0.739947   -0.343177
     22          1           0        3.788317   -0.520648   -0.206803
     23          1           0        5.336924    0.722008    0.197525
 ---------------------------------------------------------------------
 Rotational constants (GHZ):      3.0063115      0.3498131      0.3207485
 Standard basis: 6-31G(d) (6D, 7F)
 There are   189 symmetry adapted cartesian basis functions of A   symmetry.
 There are   189 symmetry adapted basis functions of A   symmetry.
   189 basis functions,   356 primitive gaussians,   189 cartesian basis functions
    44 alpha electrons       44 beta electrons
       nuclear repulsion energy       627.2624089737 Hartrees.
 NAtoms=   23 NActive=   23 NUniq=   23 SFac= 1.00D+00 NAtFMM=   60 NAOKFM=F Big=F
 Integral buffers will be    131072 words long.
 Raffenetti 2 integral format.
 Two-electron integral symmetry is turned on.
 One-electron integrals computed using PRISM.
 NBasis=   189 RedAO= T EigKep=  2.16D-03  NBF=   189
 NBsUse=   189 1.00D-06 EigRej= -1.00D+00 NBFU=   189
 Initial guess from the checkpoint file:  "glutamine.chk"
 B after Tr=     0.000000    0.000000    0.000000
         Rot=    0.999996    0.002350    0.000210   -0.001725 Ang=   0.33 deg.
 ExpMin= 1.61D-01 ExpMax= 5.48D+03 ExpMxC= 8.25D+02 IAcc=1 IRadAn=         1 AccDes= 0.00D+00
 Harris functional with IExCor=  402 and IRadAn=       1 diagonalized for initial guess.
 HarFok:  IExCor=  402 AccDes= 0.00D+00 IRadAn=         1 IDoV= 1 UseB2=F ITyADJ=14
 ICtDFT=  3500011 ScaDFX=  1.000000  1.000000  1.000000  1.000000
 FoFCou: FMM=F IPFlag=           0 FMFlag=      100000 FMFlg1=           0
         NFxFlg=           0 DoJE=T BraDBF=F KetDBF=T FulRan=T
         wScrn=  0.000000 ICntrl=     500 IOpCl=  0 I1Cent=   200000004 NGrid=           0
         NMat0=    1 NMatS0=      1 NMatT0=    0 NMatD0=    1 NMtDS0=    0 NMtDT0=    0
 Petite list used in FoFCou.
 Requested convergence on RMS density matrix=1.00D-08 within 128 cycles.
 Requested convergence on MAX density matrix=1.00D-06.
 Requested convergence on             energy=1.00D-06.
 No special actions if energy rises.
 Integral accuracy reduced to 1.0D-05 until final iterations.
 Initial convergence to 1.0D-05 achieved.  Increase integral accuracy.
 SCF Done:  E(RB3LYP) =  -608.121459217     A.U. after   12 cycles
            NFock= 12  Conv=0.92D-08     -V/T= 2.0091
 Calling FoFJK, ICntrl=      2127 FMM=F ISym2X=0 I1Cent= 0 IOpClX= 0 NMat=1 NMatS=1 NMatT=0.
 ***** Axes restored to original set *****
 -------------------------------------------------------------------
 Center     Atomic                   Forces (Hartrees/Bohr)
 Number     Number              X              Y              Z
 -------------------------------------------------------------------
      1        6           0.001057601   -0.000003356   -0.000308438
      2        7          -0.000647393   -0.000306042    0.000141865
      3        6          -0.000105072    0.000416827    0.000223641
      4        1          -0.000051937   -0.000104392   -0.000067872
      5        1           0.000014475   -0.000017949   -0.000043940
      6        6           0.000134887   -0.000267653   -0.000128760
      7        1           0.000009853    0.000148829   -0.000004460
      8        1           0.000270383    0.000062661    0.000126191
      9        6          -0.000324277    0.000817945   -0.000733548
     10        1          -0.000489095   -0.000345810    0.000082063
     11        6           0.006243852    0.001980484    0.000963206
     12        7          -0.000637133   -0.000922963    0.000505080
     13        8           0.030631799    0.042686389    0.013573650
     14        1           0.000141108    0.000028763    0.000051901
     15        1           0.000052265    0.000030677    0.000066816
     16        1           0.000254560   -0.000213161   -0.000238012
     17        1           0.000449190    0.000196391   -0.000024496
     18        8          -0.000334813    0.000007760   -0.000051302
     19        8          -0.001436634   -0.001438902   -0.000341849
     20        8           0.013790661    0.025985464    0.007860376
     21        1           0.008012494   -0.010823519   -0.002632479
     22        1          -0.062184004   -0.056013804   -0.018727543
     23        1           0.005147230   -0.001904637   -0.000292089
 -------------------------------------------------------------------
 Cartesian Forces:  Max     0.062184004 RMS     0.012909692

 GradGradGradGradGradGradGradGradGradGradGradGradGradGradGradGradGradGrad
 Berny optimization.
 Using GEDIIS/GDIIS optimizer.
 FormGI is forming the generalized inverse of G from B-inverse, IUseBI=4.
 Internal  Forces:  Max     0.054126350 RMS     0.007510943
 Search for a local minimum.
 Step number   2 out of a maximum of  113
 All quantities printed in internal units (Hartrees-Bohrs-Radians)
 Mixed Optimization -- RFO/linear search
 Update second derivatives using D2CorX and points    1    2
 DE= -2.56D-02 DEPred=-2.22D-02 R= 1.15D+00
 TightC=F SS=  1.41D+00  RLast= 3.00D-01 DXNew= 5.0454D-01 9.0106D-01
 Trust test= 1.15D+00 RLast= 3.00D-01 DXMaxT set to 5.05D-01
 ITU=  1  0
 Use linear search instead of GDIIS.
 Linear search step of   0.600 exceeds DXMaxT=   0.505 but not scaled.
 Quartic linear search produced a step of  2.00000.
 Iteration  1 RMS(Cart)=  0.07041687 RMS(Int)=  0.02782193
 Iteration  2 RMS(Cart)=  0.08719253 RMS(Int)=  0.01054112
 Iteration  3 RMS(Cart)=  0.04532322 RMS(Int)=  0.00130864
 Iteration  4 RMS(Cart)=  0.00225440 RMS(Int)=  0.00001302
 Iteration  5 RMS(Cart)=  0.00000121 RMS(Int)=  0.00001302
 Iteration  6 RMS(Cart)=  0.00000000 RMS(Int)=  0.00001302
 Variable       Old X    -DE/DX   Delta X   Delta X   Delta X     New X
                                 (Linear)    (Quad)   (Total)
    R1        2.58941   0.00057   0.00306   0.00000   0.00306   2.59247
    R2        2.89055  -0.00037  -0.00002   0.00000  -0.00002   2.89053
    R3        2.30936   0.00001   0.00033   0.00000   0.00033   2.30968
    R4        1.91049  -0.00007  -0.00006   0.00000  -0.00006   1.91043
    R5        1.90578   0.00000  -0.00039   0.00000  -0.00039   1.90539
    R6        2.07281   0.00006   0.00100   0.00000   0.00100   2.07381
    R7        2.07926   0.00005   0.00026   0.00000   0.00026   2.07953
    R8        2.89992  -0.00014   0.00379   0.00000   0.00379   2.90371
    R9        2.07090   0.00002   0.00012   0.00000   0.00012   2.07102
   R10        2.06434   0.00002  -0.00117   0.00000  -0.00117   2.06317
   R11        2.89538  -0.00041  -0.00013   0.00000  -0.00013   2.89525
   R12        2.09741  -0.00004   0.00029   0.00000   0.00029   2.09770
   R13        2.89753   0.00046   0.02336   0.00000   0.02336   2.92089
   R14        2.77766   0.00095   0.00131   0.00000   0.00131   2.77897
   R15        2.51272  -0.00352  -0.02605   0.00000  -0.02605   2.48667
   R16        2.30975  -0.00161  -0.00428   0.00000  -0.00428   2.30547
   R17        1.92424   0.00004   0.00197   0.00000   0.00197   1.92621
   R18        1.92244   0.00030  -0.00155   0.00000  -0.00155   1.92089
   R19        2.39308  -0.05413  -0.20272   0.00000  -0.20272   2.19036
   R20        1.82539   0.00104   0.02251   0.00000   0.02251   1.84790
   R21        2.61659   0.01893   0.24430   0.00000   0.24430   2.86089
   R22        1.81888   0.00230   0.00949   0.00000   0.00949   1.82837
    A1        2.01348  -0.00020   0.00020   0.00000   0.00020   2.01368
    A2        2.13007  -0.00023  -0.00633   0.00000  -0.00633   2.12375
    A3        2.13887   0.00043   0.00612   0.00000   0.00612   2.14499
    A4        2.05136  -0.00010   0.00055   0.00000   0.00054   2.05190
    A5        2.12737  -0.00001  -0.00201   0.00000  -0.00201   2.12536
    A6        2.06020   0.00005   0.00026   0.00000   0.00026   2.06046
    A7        1.93614  -0.00014  -0.00428   0.00000  -0.00428   1.93187
    A8        1.85654  -0.00008  -0.00138   0.00000  -0.00140   1.85515
    A9        1.94842   0.00036   0.00953   0.00000   0.00953   1.95795
   A10        1.86905   0.00001  -0.00063   0.00000  -0.00064   1.86840
   A11        1.93358  -0.00011  -0.00224   0.00000  -0.00223   1.93135
   A12        1.91680  -0.00005  -0.00138   0.00000  -0.00139   1.91541
   A13        1.91486   0.00005  -0.00156   0.00000  -0.00155   1.91331
   A14        1.90027   0.00028   0.00390   0.00000   0.00392   1.90419
   A15        1.97141  -0.00025   0.00591   0.00000   0.00591   1.97732
   A16        1.87156  -0.00012  -0.00119   0.00000  -0.00121   1.87035
   A17        1.89416   0.00010  -0.00165   0.00000  -0.00166   1.89250
   A18        1.90899  -0.00007  -0.00581   0.00000  -0.00584   1.90316
   A19        1.88472  -0.00009  -0.00311   0.00000  -0.00319   1.88152
   A20        1.93587  -0.00020   0.00835   0.00000   0.00836   1.94423
   A21        1.94255   0.00055  -0.00548   0.00000  -0.00552   1.93704
   A22        1.82304   0.00038   0.00491   0.00000   0.00491   1.82795
   A23        1.96277  -0.00029  -0.00471   0.00000  -0.00475   1.95802
   A24        1.91161  -0.00037   0.00091   0.00000   0.00094   1.91255
   A25        1.97761  -0.00199   0.02340   0.00000   0.02340   2.00100
   A26        2.15633  -0.00049  -0.01109   0.00000  -0.01109   2.14524
   A27        2.14840   0.00249  -0.01236   0.00000  -0.01236   2.13604
   A28        1.91077   0.00016   0.00637   0.00000   0.00638   1.91715
   A29        1.89474  -0.00057  -0.02430   0.00000  -0.02429   1.87045
   A30        1.86377   0.00007   0.00565   0.00000   0.00568   1.86944
   A31        1.89248  -0.00296   0.02139   0.00000   0.02139   1.91387
   A32        2.17541   0.01362   0.16203   0.00000   0.16203   2.33744
   A33        2.04367  -0.01135  -0.10145   0.00000  -0.10145   1.94223
   A34        2.06410  -0.00227  -0.06059   0.00000  -0.06059   2.00352
   A35        2.14283   0.04645   0.46339   0.00000   0.46339   2.60623
    D1        3.05974  -0.00009  -0.00299   0.00000  -0.00299   3.05675
    D2        0.23968   0.00008   0.00118   0.00000   0.00118   0.24086
    D3       -0.12291  -0.00011  -0.00292   0.00000  -0.00292  -0.12583
    D4       -2.94297   0.00006   0.00125   0.00000   0.00125  -2.94172
    D5       -0.22650   0.00010   0.00464   0.00000   0.00463  -0.22187
    D6        1.80022  -0.00001   0.00089   0.00000   0.00089   1.80111
    D7       -2.39227   0.00009   0.00374   0.00000   0.00374  -2.38853
    D8        2.95637   0.00014   0.00490   0.00000   0.00490   2.96127
    D9       -1.30010   0.00003   0.00115   0.00000   0.00115  -1.29894
   D10        0.79060   0.00013   0.00400   0.00000   0.00400   0.79461
   D11        1.20579  -0.00004  -0.00244   0.00000  -0.00244   1.20335
   D12       -0.83749  -0.00008  -0.00237   0.00000  -0.00237  -0.83986
   D13       -2.96173  -0.00004  -0.00166   0.00000  -0.00167  -2.96339
   D14       -0.96142  -0.00003  -0.00217   0.00000  -0.00218  -0.96360
   D15       -3.00470  -0.00008  -0.00211   0.00000  -0.00210  -3.00681
   D16        1.15425  -0.00003  -0.00140   0.00000  -0.00141   1.15284
   D17       -3.02258   0.00005   0.00083   0.00000   0.00083  -3.02175
   D18        1.21732   0.00001   0.00089   0.00000   0.00091   1.21823
   D19       -0.90691   0.00005   0.00161   0.00000   0.00160  -0.90531
   D20        1.11918  -0.00006  -0.00515   0.00000  -0.00514   1.11404
   D21        3.10695   0.00023   0.00333   0.00000   0.00332   3.11027
   D22       -1.04319   0.00000   0.00654   0.00000   0.00652  -1.03667
   D23       -3.03665  -0.00009  -0.00440   0.00000  -0.00439  -3.04104
   D24       -1.04887   0.00020   0.00408   0.00000   0.00407  -1.04480
   D25        1.08417  -0.00002   0.00729   0.00000   0.00727   1.09144
   D26       -1.00013  -0.00021  -0.00997   0.00000  -0.00994  -1.01008
   D27        0.98764   0.00008  -0.00150   0.00000  -0.00148   0.98616
   D28        3.12069  -0.00015   0.00172   0.00000   0.00172   3.12240
   D29        2.87428  -0.00005   0.00012   0.00000   0.00011   2.87440
   D30       -0.31049   0.00008  -0.00137   0.00000  -0.00138  -0.31187
   D31       -1.38263  -0.00005   0.00311   0.00000   0.00312  -1.37951
   D32        1.71577   0.00008   0.00162   0.00000   0.00163   1.71741
   D33        0.72332  -0.00036   0.00080   0.00000   0.00079   0.72411
   D34       -2.46146  -0.00023  -0.00069   0.00000  -0.00070  -2.46216
   D35        1.32420   0.00033   0.00101   0.00000   0.00103   1.32524
   D36       -2.93047   0.00019  -0.00232   0.00000  -0.00232  -2.93278
   D37       -0.79320   0.00026   0.01239   0.00000   0.01238  -0.78082
   D38        1.23531   0.00011   0.00905   0.00000   0.00903   1.24434
   D39       -2.81197   0.00019   0.00855   0.00000   0.00855  -2.80342
   D40       -0.78346   0.00005   0.00521   0.00000   0.00520  -0.77826
   D41        3.12030  -0.00011  -0.00688   0.00000  -0.00688   3.11342
   D42        0.02167  -0.00016  -0.00543   0.00000  -0.00543   0.01624
   D43       -3.05611  -0.00007  -0.00043   0.00000  -0.00043  -3.05653
   D44        3.14058   0.00002   0.00295   0.00000   0.00295  -3.13966
   D45       -3.14151   0.00001   0.00017   0.00000   0.00017  -3.14134
   D46       -0.00110   0.00000   0.00278   0.00000   0.00278   0.00168
         Item               Value     Threshold  Converged?
 Maximum Force            0.054126     0.000450     NO 
 RMS     Force            0.007511     0.000300     NO 
 Maximum Displacement     0.907432     0.001800     NO 
 RMS     Displacement     0.187281     0.001200     NO 
 Predicted change in Energy=-1.714465D-02
 GradGradGradGradGradGradGradGradGradGradGradGradGradGradGradGradGradGrad

                          Input orientation:                          
 ---------------------------------------------------------------------
 Center     Atomic      Atomic             Coordinates (Angstroms)
 Number     Number       Type             X           Y           Z
 ---------------------------------------------------------------------
      1          6           0       -3.214003    0.553088   -0.012405
      2          7           0       -4.331958    0.090969    0.634643
      3          6           0       -2.126905   -0.491658   -0.270100
      4          1           0       -2.322304   -1.404785    0.306379
      5          1           0       -2.202557   -0.759765   -1.334693
      6          6           0       -0.720181    0.048574    0.030469
      7          1           0       -0.606778    0.199575    1.110014
      8          1           0       -0.602904    1.024178   -0.445384
      9          6           0        0.400474   -0.879524   -0.449214
     10          1           0        0.339596   -0.941344   -1.555874
     11          6           0        1.794111   -0.274296   -0.165369
     12          7           0        0.298239   -2.201275    0.187261
     13          8           0        2.791481   -1.128182   -0.253109
     14          1           0       -5.038613    0.767729    0.888943
     15          1           0       -4.345834   -0.805370    1.096200
     16          1           0       -0.456079   -2.735065   -0.242928
     17          1           0        1.164233   -2.696291   -0.008344
     18          8           0       -3.124544    1.711620   -0.391420
     19          8           0        1.966567    0.909647    0.073268
     20          8           0        5.305616   -0.610430    0.001821
     21          1           0        5.989982    0.053151    0.219830
     22          1           0        3.793085   -0.579479   -0.055101
     23          1           0        5.702708   -1.463652   -0.222787
 ---------------------------------------------------------------------
                    Distance matrix (angstroms):
                    1          2          3          4          5
     1  C    0.000000
     2  N    1.371878   0.000000
     3  C    1.529602   2.453625   0.000000
     4  H    2.174861   2.526608   1.097411   0.000000
     5  H    2.120154   3.022645   1.100437   1.767344   0.000000
     6  C    2.544705   3.662207   1.536576   2.180637   2.171294
     7  H    2.860493   3.756959   2.166404   2.482505   3.073018
     8  H    2.688352   3.992892   2.156633   3.069422   2.555820
     9  C    3.912497   4.951012   2.563234   2.874081   2.752124
    10  H    4.152552   5.261887   2.817633   3.281535   2.558209
    11  C    5.078304   6.188874   3.928433   4.294814   4.192416
    12  N    4.467911   5.185871   3.002215   2.741501   3.263169
    13  O    6.241030   7.281334   4.959433   5.151731   5.123082
    14  H    2.046387   1.010957   3.377496   3.526689   3.914206
    15  H    2.086972   1.008291   2.624659   2.253395   3.241135
    16  H    4.297818   4.876376   2.797369   2.356730   2.853760
    17  H    5.452288   6.195997   3.969952   3.731351   4.104219
    18  O    1.222232   2.266532   2.421659   3.292794   2.801351
    19  O    5.193533   6.376269   4.340285   4.879073   4.706473
    20  O    8.598714   9.683763   7.438442   7.675214   7.627662
    21  H    9.220479  10.330342   8.149890   8.439620   8.378250
    22  H    7.098156   8.181783   5.924544   6.181406   6.133317
    23  H    9.144356  10.190513   7.889857   8.042655   8.014050
                    6          7          8          9         10
     6  C    0.000000
     7  H    1.095938   0.000000
     8  H    1.091785   1.760469   0.000000
     9  C    1.532100   2.147139   2.151945   0.000000
    10  H    2.149313   3.050292   2.446379   1.110056   0.000000
    11  C    2.542491   2.759606   2.740460   1.545669   2.119923
    12  N    2.474587   2.726648   3.408203   1.470570   2.151198
    13  O    3.714423   3.894767   4.023863   2.411887   2.782777
    14  H    4.461280   4.473571   4.639150   5.838474   6.150056
    15  H    3.874321   3.871775   4.442213   4.992118   5.385651
    16  H    2.809473   3.235008   3.767553   2.054085   2.361008
    17  H    3.329686   3.573968   4.141941   2.019489   2.480870
    18  O    2.953756   3.298444   2.614222   4.375286   4.516020
    19  O    2.821683   2.863765   2.623795   2.434496   2.954202
    20  O    6.061793   6.069646   6.146750   4.933179   5.215100
    21  H    6.712836   6.658162   6.697130   5.706146   6.005749
    22  H    4.557558   4.617706   4.695610   3.428580   3.782837
    23  H    6.603367   6.659752   6.782299   5.339115   5.550936
                   11         12         13         14         15
    11  C    0.000000
    12  N    2.464798   0.000000
    13  O    1.315890   2.749857   0.000000
    14  H    6.991674   6.147303   8.136900   0.000000
    15  H    6.290669   4.933774   7.270908   1.731340   0.000000
    16  H    3.335379   1.019308   3.623372   5.877952   4.543917
    17  H    2.507482   1.016489   2.273062   7.160996   5.929287
    18  O    5.309249   5.230780   6.563761   2.488759   3.168565
    19  O    1.220004   3.531876   2.222555   7.053936   6.620731
    20  O    3.531516   5.257281   2.579521  10.473270   9.715253
    21  H    4.226220   6.122046   3.442329  11.071958  10.408371
    22  H    2.025140   3.860429   1.159091   8.983600   8.223048
    23  H    4.085951   5.469964   2.930648  11.026830  10.156094
                   16         17         18         19         20
    16  H    0.000000
    17  H    1.637664   0.000000
    18  O    5.188040   6.161984   0.000000
    19  O    4.387838   3.695023   5.174796   0.000000
    20  O    6.145820   4.637022   8.752951   3.669466   0.000000
    21  H    7.038466   5.558718   9.284327   4.116180   0.977868
    22  H    4.768356   3.375491   7.294918   2.360115   1.513918
    23  H    6.288684   4.707774   9.382492   4.436095   0.967532
                   21         22         23
    21  H    0.000000
    22  H    2.302644   0.000000
    23  H    1.605966   2.111052   0.000000
 Stoichiometry    C5H12N2O4
 Framework group  C1[X(C5H12N2O4)]
 Deg. of freedom    63
 Full point group                 C1      NOp   1
 Largest Abelian subgroup         C1      NOp   1
 Largest concise Abelian subgroup C1      NOp   1
                         Standard orientation:                         
 ---------------------------------------------------------------------
 Center     Atomic      Atomic             Coordinates (Angstroms)
 Number     Number       Type             X           Y           Z
 ---------------------------------------------------------------------
      1          6           0       -3.361148   -0.326562    0.037543
      2          7           0       -4.414943    0.321560   -0.555332
      3          6           0       -2.125271    0.535601    0.300156
[...]
 9147,0.00066911,0.17473513,-0.28371948,-0.07261359,-0.00083859,0.00031
 206,0.00181264,-0.00023037,0.00031960,-0.00005078,-0.00013592,0.000141
 37,-0.00004278,-0.00013269,0.00027328,-0.00021507,-0.00003435,-0.00002
 306,-0.00001309,0.00013818,0.00000104,0.00002716,-0.00007695,0.0000188
 4,-0.00005675,0.00000581,-0.00000502,-0.00000852,0.00006780,0.00005391
 ,0.00001481,-0.00002012,0.00001618,-0.00000770,-0.00005566,-0.00000614
 ,-0.00000530,-0.18796431,0.28273829,0.00536801,-0.01738086,-0.00217123
 ,0.10611957,-0.08037687,-0.06352353,0.00476078,0.00344008,0.00454887,-
 0.00033960,-0.00035143,0.00027265,-0.00099831,0.00040975,0.00019641,0.
 00033804,-0.00157768,-0.00061798,-0.00005495,0.00000529,-0.00001728,-0
 .00000428,0.00003326,-0.00002914,0.00038189,0.00047447,0.00020657,0.00
 002027,-0.00002567,-0.00006450,-0.00012178,-0.00012013,-0.00008749,0.0
 0000330,-0.00003351,-0.00001261,0.00019821,-0.00003355,0.00000256,-0.0
 9764120,0.08424066,0.06227172,0.00440831,-0.03069216,0.00241441,-0.061
 24975,-0.03505319,0.05222270,-0.00085999,-0.00088198,-0.00024904,-0.00
 115909,0.00188719,0.00034950,0.00049628,0.00018109,-0.00059076,0.00004
 357,0.00054808,-0.00031056,-0.00009939,-0.00007065,-0.00000883,0.00044
 233,-0.00011403,0.00002985,-0.00004298,0.00009178,0.00011568,0.0000163
 0,-0.00000336,-0.00003884,-0.00029082,-0.00002864,-0.00000877,0.000148
 35,-0.00011513,-0.00008333,0.00025576,-0.00003918,-0.00000218,0.005573
 40,0.01762363,-0.01365256,0.05767046,-0.00202153,-0.00648517,0.0005099
 3,-0.03914799,-0.39574007,0.14182431,0.00081209,-0.00003249,-0.0013650
 3,0.00127827,0.00036940,-0.00042629,0.00041709,-0.00005276,-0.00020128
 ,-0.00040535,-0.00045005,0.00008220,-0.00004669,0.00004219,-0.00001448
 ,-0.00012883,0.00019514,-0.00007569,0.00006359,0.00015887,-0.00004023,
 -0.00000004,-0.00002170,0.00001716,-0.00004846,0.00003245,0.00001282,-
 0.00000309,-0.00007674,0.00005618,0.00006540,-0.00004603,-0.00000098,-
 0.00855096,-0.01209369,0.00954632,0.04847675,0.41005324,-0.01150213,0.
 01082692,-0.00818535,0.05812882,0.15364494,-0.07746100,-0.00106665,-0.
 00046983,-0.00153903,0.00081919,-0.00076212,0.00073924,0.00066939,-0.0
 0002949,-0.00033535,0.00010277,-0.00021652,0.00052015,-0.00018815,-0.0
 0000952,-0.00010887,-0.00035908,0.00001336,0.00004036,-0.00014329,-0.0
 0017208,-0.00006234,0.00003048,-0.00000755,-0.00003400,0.00009284,0.00
 011402,0.00007589,0.00004128,0.00002870,-0.00008690,-0.00009714,-0.000
 01705,-0.00003357,-0.00610905,-0.01311665,0.00209514,-0.04663018,-0.15
 153231,0.08011455,-0.00032515,0.00036666,0.00012140,0.00009248,-0.0000
 5090,-0.00004830,-0.00002711,0.00054185,-0.00023993,-0.00112789,0.0010
 5387,0.00057706,0.00006552,0.00002965,-0.00013047,0.00036970,-0.000434
 15,0.00021626,-0.00008116,0.00003838,0.00005039,-0.00014488,-0.0000860
 4,-0.00004532,-0.00351959,-0.00141561,-0.00336899,0.00096737,0.0015394
 8,-0.00033817,-0.00014588,0.00041276,0.00068959,-0.29909590,-0.1114164
 4,-0.10955229,-0.00068246,-0.00094273,0.00015553,-0.00000298,0.0000022
 8,0.00000507,-0.00004591,0.00003314,0.00003426,0.32823713,0.00127261,-
 0.00079960,-0.00042069,-0.00047249,0.00012118,0.00016375,-0.00049486,-
 0.00026089,0.00057336,0.00119325,-0.00005874,-0.00079660,0.00017355,-0
 .00016884,0.00028395,-0.00100712,-0.00007413,-0.00016276,0.00002673,-0
 .00003677,0.00013673,0.00016608,0.00005976,0.00024769,-0.03229621,-0.0
 1489593,-0.01488625,0.00063344,0.00209159,0.00041597,0.00395395,-0.006
 19189,0.00318986,-0.12071521,-0.12034455,-0.05091341,0.00022924,0.0013
 2481,-0.00046240,-0.00000920,-0.00001773,0.00000360,0.00010604,0.00003
 839,-0.00003738,0.12785878,0.12749567,0.00025249,-0.00017877,-0.000463
 66,0.00004850,0.00001272,-0.00007712,-0.00087678,-0.00084285,0.0015199
 8,0.00117726,0.00015990,-0.00049982,-0.00018817,0.00019623,-0.00041393
 ,-0.00075653,-0.00101868,0.00014260,-0.00009011,-0.00008690,0.00000542
 ,0.00031239,-0.00001259,-0.00005580,0.01932997,0.01438887,-0.00026559,
 0.00122987,-0.00108841,0.00232242,-0.00000070,0.00451076,-0.00166774,-
 0.16256976,-0.07270325,-0.08000138,0.00036436,-0.00056248,0.00043217,0
 .00003313,0.00000316,0.00000658,0.00011697,-0.00006780,0.00001564,0.12
 851297,0.05334496,0.07880428,0.00014132,0.00002065,-0.00008368,0.00000
 552,-0.00004215,-0.00000426,-0.00031874,-0.00001217,0.00036649,0.00010
 243,0.00022372,-0.00024748,0.00000076,-0.00003741,0.00002074,-0.000306
 03,-0.00205649,0.00019831,0.00000984,0.00009715,-0.00003139,0.00049505
 ,-0.00058147,-0.00001821,0.00654038,-0.00400191,-0.00060466,-0.0002638
 8,-0.00070529,0.00055907,0.00394516,-0.00390320,-0.00021187,-0.2698175
 0,0.16183248,0.05976099,-0.00403898,-0.00069729,0.00027281,0.00000438,
 0.00000698,-0.00000308,0.00000009,0.00000983,0.00000403,-0.02495066,0.
 02240341,0.01199052,0.29014142,-0.00003430,-0.00023677,0.00001187,0.00
 010556,0.00003026,-0.00004739,-0.00115035,0.00006071,0.00032314,0.0003
 0620,0.00024517,-0.00023580,0.00008491,-0.00003359,0.00006952,-0.00296
 100,-0.00614680,0.00485329,-0.00021751,0.00033455,0.00002677,0.0016047
 8,-0.00121024,-0.00083629,0.02798204,-0.02277005,-0.01329269,0.0000644
 7,0.00087686,0.00043124,0.00292101,-0.00558944,-0.00106630,0.16237363,
 -0.18832526,-0.04567446,0.00088554,0.00218732,0.00029108,-0.00000859,0
 .00000481,-0.00001105,0.00001684,-0.00000383,-0.00001631,-0.01648121,0
 .01176199,0.00287361,-0.17442064,0.20548653,-0.00032613,0.00022744,0.0
 0024681,0.00020341,-0.00004910,-0.00008823,0.00006630,-0.00010876,-0.0
 0006718,-0.00047747,0.00003284,-0.00006764,0.00004306,-0.00012688,0.00
 014814,0.00072175,0.00020316,-0.00054779,0.00002989,0.00035394,0.00022
 211,0.00004109,-0.00008512,0.00078586,-0.01378495,0.01550932,-0.003684
 46,-0.00051626,0.00081504,0.00032553,0.00177504,-0.00181636,0.00235049
 ,0.10185861,-0.07887210,-0.04216205,-0.00035488,0.00157921,-0.00131238
 ,-0.00000334,0.00000636,-0.00000459,-0.00005566,-0.00000542,0.00002278
 ,-0.01672120,0.01038024,-0.00048307,-0.07225835,0.05217355,0.04482024,
 -0.12626763,-0.10886451,0.03924450,-0.01301403,-0.06647291,0.02561739,
 0.01448071,0.01495334,-0.00239039,-0.00144866,0.00526312,0.00103449,-0
 .00050471,0.00194129,0.00041240,-0.00080234,-0.00017837,0.00058906,0.0
 0019315,0.00008720,-0.00013060,0.00155392,0.00208955,-0.00087525,0.001
 70191,0.00000448,-0.00086807,-0.00013932,0.00015238,0.00011902,0.00140
 393,-0.00057305,-0.00003941,-0.00095335,0.00125734,-0.00013292,-0.0009
 7150,0.00038613,-0.00001971,0.00425375,0.00057168,-0.00441456,-0.00540
 233,-0.00080560,0.00624129,0.00005529,-0.00030050,-0.00001145,0.000010
 90,0.00027386,0.00016687,0.12619688,-0.10120065,-0.65380233,0.13133243
 ,-0.05054108,-0.03398131,0.02896190,0.00196488,-0.04994553,0.00879946,
 0.00525520,-0.00494312,-0.00273751,-0.00057606,-0.00012897,0.00034213,
 -0.00634863,-0.00211492,0.00020718,0.00094035,-0.00020274,0.00076670,0
 .00244838,0.00000787,-0.00083260,0.00073651,0.00099861,0.00062378,-0.0
 0014273,0.00013716,-0.00000670,-0.00119364,-0.00167476,-0.00043907,0.0
 0062905,-0.00015831,-0.00027570,0.00111376,0.00042354,0.00010038,-0.00
 151685,-0.00227516,0.00177379,-0.00195284,0.00415382,0.00180929,-0.000
 38221,0.00097259,0.00056485,0.00011695,0.00021423,-0.00017934,0.150005
 57,0.74142313,0.03844360,0.13358402,-0.11582935,0.02421335,0.03920131,
 0.00372611,-0.00060679,-0.00206983,0.01833526,0.00253493,-0.00261832,0
 .00105156,-0.00195543,0.00384291,0.00155961,0.00190168,-0.00061185,0.0
 0022311,0.00036206,-0.00058740,0.00039007,-0.00113495,-0.00064332,-0.0
 0065850,0.00010554,0.00003657,0.00026827,-0.00008473,0.00008920,0.0000
 7720,-0.00032592,0.00003719,-0.00011292,0.00018366,-0.00028742,0.00010
 926,0.00021472,-0.00006584,0.00004813,-0.00568371,-0.00063925,-0.00306
 510,0.00639417,0.00169938,0.00424185,0.00000765,0.00002742,0.00002016,
 -0.00000764,-0.00004987,-0.00008601,-0.06462724,-0.17092416,0.08961620
 ,0.00157483,-0.00149841,-0.00076470,-0.00104515,0.00039201,0.00041076,
 0.00005997,0.00005468,0.00049920,-0.00038903,-0.00024862,-0.00007190,-
 0.00001536,-0.00005515,0.00000364,0.00006023,-0.00189487,-0.00181249,-
 0.00016167,0.00019399,0.00019979,-0.00155987,-0.00173094,0.00068169,-0
 .00276942,-0.03450273,-0.00596752,-0.00351619,-0.00152166,-0.00135994,
 -0.18015015,-0.16020651,-0.02968537,-0.00761552,-0.00237252,-0.0012437
 3,0.03476208,0.03664937,0.00562310,0.00001351,-0.00004673,0.00007723,0
 .00020160,0.00001376,-0.00009335,-0.00005307,-0.00283773,0.00104048,-0
 .00083511,-0.00006316,-0.00054774,-0.00078723,0.00098474,0.00014334,0.
 17476793,-0.00028873,-0.00158354,0.00001436,-0.00000979,0.00045103,0.0
 0005014,-0.00032238,0.00212852,0.00039076,0.00077417,0.00020741,-0.000
 07105,0.00044942,-0.00001775,0.00019501,0.00403924,-0.00375602,-0.0006
 1898,-0.00065747,0.00018833,0.00141781,-0.00122314,0.00189912,-0.00080
 969,-0.01380644,-0.02076509,-0.01005004,-0.00282317,-0.00081234,-0.000
 03873,-0.17645649,-0.61868434,-0.09135928,-0.00418978,0.00039508,-0.00
 008902,0.03299906,-0.09257141,-0.01739166,-0.00009786,-0.00004202,0.00
 000797,0.00004897,-0.00004128,-0.00006943,-0.00050026,-0.00124329,0.00
 035399,0.00150719,0.00226155,0.00016561,0.00013733,0.00114779,-0.00000
 636,0.16410811,0.73602207,-0.00008004,-0.00022209,-0.00015279,-0.00002
 066,0.00006925,0.00010569,-0.00016280,0.00052106,0.00070659,0.00012011
 ,-0.00002076,-0.00005816,0.00028886,0.00004366,0.00002088,-0.00057929,
 -0.00005780,-0.00090414,-0.00073019,-0.00023634,0.00104852,0.00009980,
 -0.00022082,-0.00040059,-0.00293869,-0.01156657,0.01790098,0.00357755,
 0.00167663,0.00111043,-0.03258001,-0.09182558,-0.09199573,-0.00444701,
 0.00057506,-0.00060953,0.00541796,-0.01711892,0.02716431,-0.00003502,-
 0.00000781,-0.00002247,-0.00001120,-0.00002095,-0.00004356,-0.00008628
 ,-0.00094457,0.00067497,0.00032278,0.00057073,-0.00023651,0.00003189,0
 .00015370,0.00014203,0.03300160,0.11787757,0.05365741,0.00090064,-0.00
 075391,-0.00049737,-0.00069359,0.00019035,0.00024295,-0.00019558,0.000
 57970,0.00032993,-0.00008244,-0.00009043,-0.00000194,0.00001611,-0.000
 02078,-0.00004110,-0.00001270,-0.00064849,-0.00042332,0.00002792,0.000
 05273,0.00001617,0.00027737,-0.00020465,0.00010359,-0.00008331,-0.0001
 0342,0.00029590,-0.00050439,-0.00023956,-0.00007532,0.00482264,0.00231
 691,0.00123379,-0.00132247,-0.00042167,0.00023774,-0.01837610,-0.01312
 538,-0.00499838,0.00002513,-0.00002605,0.00005858,0.00012574,0.0000166
 3,-0.00003186,-0.00013999,-0.00024538,-0.00010806,0.00056693,0.0009048
 8,-0.00011926,-0.00050212,0.00044726,0.00009601,-0.01782361,0.00068626
 ,-0.00262782,0.36283896,0.00013261,-0.00043215,-0.00010150,-0.00012539
 ,0.00011476,0.00005012,-0.00015128,0.00034879,0.00017303,0.00004900,0.
 00000633,-0.00001270,0.00003297,-0.00000638,-0.00000451,-0.00037279,-0
 .00042419,-0.00019182,-0.00004694,-0.00002175,0.00006035,-0.00003955,0
 .00005615,-0.00003905,-0.00078019,0.00154386,0.00072461,0.00006631,0.0
 0006904,0.00000510,0.00662602,-0.01900847,-0.00227221,-0.00010740,0.00
 034414,-0.00001098,-0.02499771,0.00103350,-0.00496774,-0.00000829,-0.0
 0001377,0.00001627,0.00003351,-0.00000623,-0.00001551,-0.00005567,0.00
 012698,-0.00013543,0.00054461,0.00056148,0.00005675,-0.00007607,0.0002
 9207,0.00000819,0.00709330,0.01186625,0.00185006,-0.22983242,0.2356392
 8,0.00007972,-0.00005277,-0.00007397,-0.00005826,0.00001682,0.00006119
 ,-0.00003347,0.00007677,0.00004831,-0.00001169,-0.00001191,-0.00000032
 ,0.00002699,0.00000638,0.00001703,0.00001746,-0.00009022,-0.00010915,-
 0.00004132,0.00002183,0.00006832,0.00001915,-0.00001733,-0.00001082,-0
 .00022779,0.00039182,-0.00108221,-0.00012890,-0.00005702,0.00006035,0.
 00115253,-0.00210305,-0.00118947,0.00003820,-0.00003816,0.00025955,-0.
 00781913,-0.00364940,0.00524916,-0.00000850,-0.00000283,-0.00000974,-0
 .00000063,-0.00000146,-0.00001931,0.00000265,0.00003188,-0.00001768,0.
 00007881,0.00015781,-0.00013630,-0.00003638,0.00002315,0.00005119,-0.0
 0176395,0.00059240,0.00547546,0.14213212,0.01444137,0.51190207,-0.0007
 4428,0.00053594,0.00038785,0.00054490,-0.00013463,-0.00019542,0.000077
 44,-0.00032283,-0.00020423,0.00011392,0.00008907,-0.00000373,0.0000067
 9,0.00001778,0.00003228,-0.00032746,0.00035544,0.00028163,-0.00007462,
 -0.00005761,0.00002556,-0.00031711,0.00026419,-0.00011633,-0.00065693,
 0.00163415,0.00068643,0.00069871,0.00034005,0.00009814,-0.00015675,-0.
 02357895,-0.00391169,0.00119952,0.00067576,-0.00021511,-0.00996308,0.0
 0683440,0.00018843,-0.00002139,0.00001973,-0.00004250,-0.00009570,-0.0
 0001417,0.00002673,0.00009605,0.00039053,-0.00001501,-0.00005036,-0.00
 029200,0.00009192,0.00040921,-0.00031453,-0.00007928,0.00621420,0.0133
 8111,0.00176694,-0.26113743,0.20496386,-0.02456461,0.26243839,-0.00008
 314,0.00025785,0.00004710,0.00006180,-0.00006865,-0.00002244,0.0000636
 6,-0.00013533,-0.00008210,-0.00000736,0.00000032,0.00000650,-0.0000053
 9,0.00000478,0.00000636,0.00014996,0.00016079,0.00006896,-0.00000062,0
 .00001221,-0.00000712,-0.00002168,0.00003874,0.00000516,0.00045104,-0.
 00045674,-0.00030176,-0.00003261,-0.00002175,-0.00002042,-0.00961700,0
 .00367217,0.00000233,0.00010076,-0.00007493,-0.00000654,0.00481469,0.0
 0004634,0.00046274,0.00000474,0.00000820,-0.00000943,-0.00002017,0.000
 00330,0.00000897,0.00003544,-0.00003697,0.00007102,-0.00022838,-0.0002
 6316,-0.00003941,0.00004015,-0.00018382,-0.00000004,0.00454187,-0.0087
 1126,0.00013014,0.21683291,-0.19830006,0.00802207,-0.21279515,0.217036
 02,-0.00006065,0.00000158,0.00005438,0.00003703,-0.00000210,-0.0000480
 7,0.00001460,-0.00001515,-0.00001770,0.00001982,0.00001106,-0.00000310
 ,-0.00002028,-0.00000865,-0.00001650,-0.00010099,0.00003619,0.00006272
 ,0.00002238,-0.00001163,-0.00005755,-0.00002844,0.00002895,0.00001336,
 0.00008145,-0.00029347,0.00159475,0.00024000,0.00009819,-0.00006870,-0
 .00082169,-0.00220458,0.00099917,-0.00019358,0.00008541,-0.00025794,-0
 .00154334,0.00048643,-0.00194602,0.00000653,0.00000167,0.00001112,0.00
 000393,0.00000134,0.00001468,-0.00002303,-0.00003129,0.00002220,0.0000
 3341,0.00001109,0.00007471,0.00002446,0.00000752,-0.00005056,0.0019409
 3,0.00144639,-0.00711675,0.01854988,-0.03277977,-0.05417109,0.01848955
 ,-0.00039755,0.06140988,-0.00079143,0.00060879,0.00042230,0.00056115,-
 0.00015310,-0.00020578,0.00018234,-0.00034134,-0.00023987,0.00001351,0
 .00005695,0.00001740,-0.00002353,0.00001676,0.00003070,-0.00011939,0.0
 0020568,-0.00007659,0.00004709,-0.00005021,-0.00004012,-0.00015342,0.0
 0011629,-0.00005855,0.00062381,0.00182187,0.00070392,0.00021821,0.0000
 1028,-0.00035613,-0.04870795,0.01887521,-0.00058176,0.00180484,0.00058
 373,-0.00054428,-0.29548660,-0.09956020,-0.03336258,-0.00002089,0.0000
 2118,-0.00004270,-0.00010672,-0.00000851,0.00003228,0.00043036,-0.0000
 5856,0.00016808,-0.00130858,-0.00179214,0.00021750,0.00042846,-0.00041
 153,-0.00008701,-0.00033355,-0.01795564,-0.00227600,-0.00093956,0.0110
 9802,0.00335774,0.01116129,-0.00274587,0.00217168,0.33346742,-0.000140
 44,0.00055917,0.00017928,0.00023627,-0.00015705,-0.00010290,0.00029961
 ,-0.00072871,-0.00034122,0.00000086,0.00002943,-0.00000871,-0.00006367
 ,-0.00000084,0.00001133,0.00126026,0.00123366,0.00058841,0.00004572,-0
 .00000453,-0.00012213,-0.00002129,-0.00001835,0.00008063,0.00307946,-0
 .00574890,-0.00187349,-0.00006574,-0.00003631,-0.00001843,0.03712589,0
 .03070434,0.00683867,-0.00065931,-0.00064720,-0.00002051,-0.12895054,-
 0.10930123,-0.02161525,0.00001425,0.00001349,-0.00003226,-0.00004059,-
 0.00000176,0.00002386,-0.00014412,0.00013476,0.00020173,-0.00005624,0.
 00051264,-0.00012019,0.00011883,-0.00029267,-0.00002535,-0.00779183,-0
 .00828237,-0.00070443,0.00873027,-0.00308387,0.00468540,-0.00101187,-0
 .01355703,-0.00087904,0.08735534,0.10477164,-0.00011835,0.00008784,0.0
 0004118,0.00007391,-0.00002573,-0.00006565,0.00006946,-0.00003563,-0.0
 0002912,0.00000463,0.00000932,0.00000312,-0.00006981,-0.00001065,-0.00
 004817,-0.00025507,-0.00028245,0.00024326,0.00006905,-0.00003091,-0.00
 008980,0.00000557,0.00000292,-0.00001755,-0.00016913,-0.00068912,0.005
 96514,0.00124199,0.00019126,0.00008597,0.00265636,0.00634366,0.0046480
 7,-0.00022119,0.00005712,-0.00025147,-0.03701754,-0.01961656,-0.032784
 20,0.00001005,0.00000361,0.00001128,-0.00000404,0.00000162,0.00002143,
 0.00017060,-0.00015351,-0.00002287,-0.00009830,-0.00051398,-0.00014853
 ,0.00004629,-0.00006054,-0.00004168,-0.00123431,-0.00204346,-0.0065203
 6,0.00390577,0.00980781,-0.01039403,0.00178701,-0.00247514,0.00296771,
 0.03296821,0.01501949,0.03781085,-0.00018626,0.00010570,0.00008567,0.0
 0014130,-0.00002354,-0.00003072,0.00002312,-0.00008077,-0.00003150,0.0
 0000980,0.00001341,-0.00000370,0.00000888,0.00000461,0.00001559,0.0000
 1279,0.00006907,-0.00001525,-0.00002719,0.00000164,0.00003204,-0.00003
 699,0.00002171,-0.00001149,-0.00007704,0.00001264,-0.00031002,0.000032
 98,0.00001779,0.00000741,-0.00104387,-0.00011379,-0.00073872,0.0002060
 3,0.00006409,0.00003197,-0.00026605,-0.00100830,0.00141444,-0.00001297
 ,0.00000425,-0.00001543,-0.00002950,-0.00000533,-0.00000249,0.00002872
 ,0.00002966,0.00003959,-0.00007432,-0.00010282,-0.00005020,0.00010513,
 -0.00006191,-0.00000802,-0.00059942,0.00020028,0.00194754,-0.06778813,
 0.02595348,-0.11221075,-0.00941529,-0.00153965,-0.03884364,-0.00094683
 ,0.00067886,-0.00382117,0.07993511,0.00001446,0.00007910,-0.00001065,-
 0.00001913,-0.00002055,0.00000592,0.00000705,-0.00000362,-0.00000962,-
 0.00001172,-0.00000762,0.00000399,-0.00000022,0.00000006,0.00000023,-0
 .00001333,-0.00000412,0.00000005,-0.00000221,0.00002042,-0.00000232,0.
 00001037,-0.00000127,0.00001283,-0.00003721,0.00012986,-0.00006176,0.0
 0000940,-0.00002026,0.00002095,-0.00003760,-0.00002093,-0.00026287,0.0
 0000689,-0.00006446,0.00008943,-0.00267280,-0.00227334,0.00149458,0.00
 000359,0.00000355,0.00000101,-0.00000195,0.00000501,0.00000171,-0.0000
 0295,0.00000160,0.00001537,-0.00002034,0.00004106,-0.00010078,-0.00001
 123,-0.00006716,0.00000284,0.00073905,-0.00005643,-0.00052122,0.014954
 25,-0.03070577,-0.02244356,0.00901973,0.00056899,0.03440742,0.00230701
 ,0.00390168,-0.00558695,-0.02424109,0.02849420,-0.00003559,0.00002472,
 0.00003248,0.00002587,-0.00000768,-0.00002458,0.00000809,-0.00002929,-
 0.00002024,0.00000500,0.00000644,0.00000128,-0.00000576,-0.00000034,-0
 .00000287,0.00001743,0.00004031,0.00004554,0.00000712,-0.00000513,-0.0
 0001348,-0.00001450,0.00000829,-0.00000473,0.00003957,-0.00001512,0.00
 000176,0.00000941,0.00000809,-0.00001797,-0.00070547,0.00020057,0.0000
 6026,0.00006477,0.00002111,-0.00005106,0.00216088,0.00071481,0.0004157
 3,0.00000291,0.00000092,0.00000276,-0.00000064,0.00000068,0.00000757,0
 .00001054,0.00000946,0.00000222,-0.00003904,-0.00004957,0.00002807,0.0
 0001832,-0.00001063,-0.00001588,0.00092326,0.00003568,0.00005331,-0.15
 827801,0.01333755,-0.45597853,0.00548544,-0.00546941,-0.00347073,-0.00
 221845,-0.00176489,-0.00138457,0.15251883,-0.00705658,0.46033367\\0.00
 000516,-0.00000530,0.00000314,-0.00000228,-0.00000215,0.00000129,-0.00
 000702,0.00000191,-0.00000170,0.00000356,0.00000014,0.00000015,0.00000
 002,-0.00000215,-0.00000121,0.00000576,-0.00000185,0.00000276,-0.00000
 144,0.00000253,-0.00000070,-0.00000133,0.00000073,0.00000256,-0.000001
 93,0.00001326,-0.00001445,-0.00000163,-0.00000247,0.00000397,0.0000065
 6,-0.00001330,0.00000427,-0.00000311,-0.00000750,0.00000635,-0.0000121
 2,0.00000540,-0.00000343,-0.00000049,-0.00000187,-0.00000056,0.0000001
 9,-0.00000284,-0.00000168,0.00000391,-0.00000248,-0.00000455,0.0000033
 8,0.00000160,-0.00000056,-0.00000241,0.00000173,0.00000022,0.00000102,
 0.00000203,0.00000024,-0.00000217,0.00000676,0.00000837,0.00000450,-0.
 00000480,-0.00000054,0.00000374,0.00001052,0.00000318,-0.00000190,0.00
 000009,-0.00000713\\\@


 KINETICS       FACT
 ---------  =  -------
 MECHANISM     FICTION
 Job cpu time:       0 days  0 hours 12 minutes 57.3 seconds.
 File lengths (MBytes):  RWF=    110 Int=      0 D2E=      0 Chk=      4 Scr=      1
 Normal termination of Gaussian 09 at Wed Jan 11 00:30:45 2017.
