 Entering Gaussian System, Link 0=/share/apps/gaussian/g09/g09
 Input=glutamine_dftNonBonded.com
 Output=glutamine_dftNonBonded.log
 Initial command:
 /share/apps/gaussian/g09/l1.exe "/mnt/scratch/kkesgin/CompChem/Gau-13036.inp" -scrdir="/mnt/scratch/kkesgin/CompChem/"
 Entering Link 1 = /share/apps/gaussian/g09/l1.exe PID=     13037.
  
 Copyright (c) 1988,1990,1992,1993,1995,1998,2003,2009,2013,
            Gaussian, Inc.  All Rights Reserved.
  
 This is part of the Gaussian(R) 09 program.  It is based on
 the Gaussian(R) 03 system (copyright 2003, Gaussian, Inc.),
 the Gaussian(R) 98 system (copyright 1998, Gaussian, Inc.),
 the Gaussian(R) 94 system (copyright 1995, Gaussian, Inc.),
 the Gaussian 92(TM) system (copyright 1992, Gaussian, Inc.),
 the Gaussian 90(TM) system (copyright 1990, Gaussian, Inc.),
 the Gaussian 88(TM) system (copyright 1988, Gaussian, Inc.),
 the Gaussian 86(TM) system (copyright 1986, Carnegie Mellon
 University), and the Gaussian 82(TM) system (copyright 1983,
 Carnegie Mellon University). Gaussian is a federally registered
 trademark of Gaussian, Inc.
  
 This software contains proprietary and confidential information,
 including trade secrets, belonging to Gaussian, Inc.
  
 This software is provided under written license and may be
 used, copied, transmitted, or stored only in accord with that
 written license.
  
 The following legend is applicable only to US Government
 contracts under FAR:
  
                    RESTRICTED RIGHTS LEGEND
  
 Use, reproduction and disclosure by the US Government is
 subject to restrictions as set forth in subparagraphs (a)
 and (c) of the Commercial Computer Software - Restricted
 Rights clause in FAR 52.227-19.
  
 Gaussian, Inc.
 340 Quinnipiac St., Bldg. 40, Wallingford CT 06492
  
  
 ---------------------------------------------------------------
 Warning -- This program may not be used in any manner that
 competes with the business of Gaussian, Inc. or will provide
 assistance to any competitor of Gaussian, Inc.  The licensee
 of this program is prohibited from giving any competitor of
 Gaussian, Inc. access to this program.  By using this program,
 the user acknowledges that Gaussian, Inc. is engaged in the
 business of creating and licensing software in the field of
 computational chemistry and represents and warrants to the
 licensee that it is not a competitor of Gaussian, Inc. and that
 it will not use this program in any manner prohibited above.
 ---------------------------------------------------------------
  

 Cite this work as:
 Gaussian 09, Revision D.01,
 M. J. Frisch, G. W. Trucks, H. B. Schlegel, G. E. Scuseria, 
 M. A. Robb, J. R. Cheeseman, G. Scalmani, V. Barone, B. Mennucci, 
 G. A. Petersson, H. Nakatsuji, M. Caricato, X. Li, H. P. Hratchian, 
 A. F. Izmaylov, J. Bloino, G. Zheng, J. L. Sonnenberg, M. Hada, 
 M. Ehara, K. Toyota, R. Fukuda, J. Hasegawa, M. Ishida, T. Nakajima, 
 Y. Honda, O. Kitao, H. Nakai, T. Vreven, J. A. Montgomery, Jr., 
 J. E. Peralta, F. Ogliaro, M. Bearpark, J. J. Heyd, E. Brothers, 
 K. N. Kudin, V. N. Staroverov, T. Keith, R. Kobayashi, J. Normand, 
 K. Raghavachari, A. Rendell, J. C. Burant, S. S. Iyengar, J. Tomasi, 
 M. Cossi, N. Rega, J. M. Millam, M. Klene, J. E. Knox, J. B. Cross, 
 V. Bakken, C. Adamo, J. Jaramillo, R. Gomperts, R. E. Stratmann, 
 O. Yazyev, A. J. Austin, R. Cammi, C. Pomelli, J. W. Ochterski, 
 R. L. Martin, K. Morokuma, V. G. Zakrzewski, G. A. Voth, 
 P. Salvador, J. J. Dannenberg, S. Dapprich, A. D. Daniels, 
 O. Farkas, J. B. Foresman, J. V. Ortiz, J. Cioslowski, 
 and D. J. Fox, Gaussian, Inc., Wallingford CT, 2013.
 
 ******************************************
 Gaussian 09:  EM64L-G09RevD.01 24-Apr-2013
                11-Jan-2017 
 ******************************************
 %chk=glutamine.chk
 -------------------------------------------
 # opt freq b3lyp/6-31g(d) geom=connectivity
 -------------------------------------------
 1/14=-1,18=20,19=15,26=3,38=1,57=2/1,3;
 2/9=110,12=2,17=6,18=5,40=1/2;
 3/5=1,6=6,7=1,11=2,16=1,25=1,30=1,71=1,74=-5/1,2,3;
 4//1;
 5/5=2,38=5/2;
 6/7=2,8=2,9=2,10=2,28=1/1;
 7//1,2,3,16;
 1/14=-1,18=20,19=15,26=3/3(2);
 2/9=110/2;
 99//99;
 2/9=110/2;
 3/5=1,6=6,7=1,11=2,16=1,25=1,30=1,71=1,74=-5/1,2,3;
 4/5=5,16=3,69=1/1;
 5/5=2,38=5/2;
 7//1,2,3,16;
 1/14=-1,18=20,19=15,26=3/3(-5);
 2/9=110/2;
 6/7=2,8=2,9=2,10=2,19=2,28=1/1;
 99/9=1/99;
 -------------------
 Title Card Required
 -------------------
 Symbolic Z-matrix:
 Charge =  0 Multiplicity = 1
 C                    -1.12146  -0.61118  -0.16928 
 N                    -0.38899  -1.88569  -0.16928 
 C                    -2.66146  -0.61118  -0.16928 
 H                    -3.01813  -1.11342  -1.04418 
 H                    -3.01813  -1.11774   0.70312 
 C                    -3.1748    0.84074  -0.16569 
 H                    -2.81885   1.34705  -1.03853 
 H                    -2.81741   1.34324   0.70876 
 C                    -4.7148    0.84074  -0.16443 
 H                    -5.07075   0.3347    0.70857 
 C                    -5.22813   2.29266  -0.16129 
 N                    -5.20578   0.15002  -1.36557 
 O                    -4.22008   3.04592  -0.16061 
 O                    -6.54107   2.85931  -0.15924 
 H                     0.61101  -1.88767  -0.16928 
 H                    -0.8907   -2.75073  -0.16928 
 H                    -6.47622   3.81711  -0.15577 
 H                    -4.55412  -0.5604   -1.63137 
 H                    -6.09317  -0.26774  -1.17055 
 O                    -0.49442   0.47987  -0.16928 
 O                    -9.05835   8.82666   0.62559 
 H                    -8.09835   8.82666   0.62559 
 H                    -9.37881   9.73159   0.62559 
 
 Add virtual bond connecting atoms H22        and H17        Dist= 1.01D+01.

 GradGradGradGradGradGradGradGradGradGradGradGradGradGradGradGradGradGrad
 Berny optimization.
 Initialization pass.
                           ----------------------------
                           !    Initial Parameters    !
                           ! (Angstroms and Degrees)  !
 --------------------------                            --------------------------
 ! Name  Definition              Value          Derivative Info.                !
 --------------------------------------------------------------------------------
 ! R1    R(1,2)                  1.47           estimate D2E/DX2                !
 ! R2    R(1,3)                  1.54           estimate D2E/DX2                !
 ! R3    R(1,20)                 1.2584         estimate D2E/DX2                !
 ! R4    R(2,15)                 1.0            estimate D2E/DX2                !
 ! R5    R(2,16)                 1.0            estimate D2E/DX2                !
 ! R6    R(3,4)                  1.07           estimate D2E/DX2                !
 ! R7    R(3,5)                  1.07           estimate D2E/DX2                !
 ! R8    R(3,6)                  1.54           estimate D2E/DX2                !
 ! R9    R(6,7)                  1.07           estimate D2E/DX2                !
 ! R10   R(6,8)                  1.07           estimate D2E/DX2                !
 ! R11   R(6,9)                  1.54           estimate D2E/DX2                !
 ! R12   R(9,10)                 1.07           estimate D2E/DX2                !
 ! R13   R(9,11)                 1.54           estimate D2E/DX2                !
 ! R14   R(9,12)                 1.47           estimate D2E/DX2                !
 ! R15   R(11,13)                1.2584         estimate D2E/DX2                !
 ! R16   R(11,14)                1.43           estimate D2E/DX2                !
 ! R17   R(12,18)                1.0            estimate D2E/DX2                !
 ! R18   R(12,19)                1.0            estimate D2E/DX2                !
 ! R19   R(14,17)                0.96           estimate D2E/DX2                !
 ! R20   R(17,22)                5.3233         estimate D2E/DX2                !
 ! R21   R(21,22)                0.96           estimate D2E/DX2                !
 ! R22   R(21,23)                0.96           estimate D2E/DX2                !
 ! A1    A(2,1,3)              119.8865         estimate D2E/DX2                !
 ! A2    A(2,1,20)             120.2269         estimate D2E/DX2                !
 ! A3    A(3,1,20)             119.8865         estimate D2E/DX2                !
 ! A4    A(1,2,15)             120.0            estimate D2E/DX2                !
 ! A5    A(1,2,16)             120.0            estimate D2E/DX2                !
 ! A6    A(15,2,16)            120.0            estimate D2E/DX2                !
 ! A7    A(1,3,4)              109.4712         estimate D2E/DX2                !
 ! A8    A(1,3,5)              109.4712         estimate D2E/DX2                !
 ! A9    A(1,3,6)              109.4712         estimate D2E/DX2                !
 ! A10   A(4,3,5)              109.4713         estimate D2E/DX2                !
 ! A11   A(4,3,6)              109.4712         estimate D2E/DX2                !
 ! A12   A(5,3,6)              109.4712         estimate D2E/DX2                !
 ! A13   A(3,6,7)              109.4712         estimate D2E/DX2                !
 ! A14   A(3,6,8)              109.4712         estimate D2E/DX2                !
 ! A15   A(3,6,9)              109.4712         estimate D2E/DX2                !
 ! A16   A(7,6,8)              109.4712         estimate D2E/DX2                !
 ! A17   A(7,6,9)              109.4713         estimate D2E/DX2                !
 ! A18   A(8,6,9)              109.4712         estimate D2E/DX2                !
 ! A19   A(6,9,10)             109.4712         estimate D2E/DX2                !
 ! A20   A(6,9,11)             109.4712         estimate D2E/DX2                !
 ! A21   A(6,9,12)             109.4712         estimate D2E/DX2                !
 ! A22   A(10,9,11)            109.4713         estimate D2E/DX2                !
 ! A23   A(10,9,12)            109.4712         estimate D2E/DX2                !
 ! A24   A(11,9,12)            109.4712         estimate D2E/DX2                !
 ! A25   A(9,11,13)            107.2975         estimate D2E/DX2                !
 ! A26   A(9,11,14)            132.816          estimate D2E/DX2                !
 ! A27   A(13,11,14)           119.8865         estimate D2E/DX2                !
 ! A28   A(9,12,18)            109.4712         estimate D2E/DX2                !
 ! A29   A(9,12,19)            109.4712         estimate D2E/DX2                !
 ! A30   A(18,12,19)           109.4712         estimate D2E/DX2                !
 ! A31   A(11,14,17)           109.4712         estimate D2E/DX2                !
 ! A32   A(14,17,22)           156.7587         estimate D2E/DX2                !
 ! A33   A(22,21,23)           109.5            estimate D2E/DX2                !
 ! A34   A(17,22,21)           107.7416         estimate D2E/DX2                !
 ! D1    D(3,1,2,15)           180.0            estimate D2E/DX2                !
 ! D2    D(3,1,2,16)             0.0            estimate D2E/DX2                !
 ! D3    D(20,1,2,15)            0.0            estimate D2E/DX2                !
 ! D4    D(20,1,2,16)          180.0            estimate D2E/DX2                !
 ! D5    D(2,1,3,4)            -60.1417         estimate D2E/DX2                !
 ! D6    D(2,1,3,5)             59.8583         estimate D2E/DX2                !
 ! D7    D(2,1,3,6)            179.8583         estimate D2E/DX2                !
 ! D8    D(20,1,3,4)           119.8583         estimate D2E/DX2                !
 ! D9    D(20,1,3,5)          -120.1417         estimate D2E/DX2                !
 ! D10   D(20,1,3,6)            -0.1417         estimate D2E/DX2                !
 ! D11   D(1,3,6,7)             60.0499         estimate D2E/DX2                !
 ! D12   D(1,3,6,8)            -59.9501         estimate D2E/DX2                !
 ! D13   D(1,3,6,9)           -179.9501         estimate D2E/DX2                !
 ! D14   D(4,3,6,7)            -59.9501         estimate D2E/DX2                !
 ! D15   D(4,3,6,8)           -179.95           estimate D2E/DX2                !
 ! D16   D(4,3,6,9)             60.05           estimate D2E/DX2                !
 ! D17   D(5,3,6,7)           -179.9501         estimate D2E/DX2                !
 ! D18   D(5,3,6,8)             60.0499         estimate D2E/DX2                !
 ! D19   D(5,3,6,9)            -59.9501         estimate D2E/DX2                !
 ! D20   D(3,6,9,10)            60.0179         estimate D2E/DX2                !
 ! D21   D(3,6,9,11)          -179.9821         estimate D2E/DX2                !
 ! D22   D(3,6,9,12)           -59.9821         estimate D2E/DX2                !
 ! D23   D(7,6,9,10)          -179.9822         estimate D2E/DX2                !
 ! D24   D(7,6,9,11)           -59.9821         estimate D2E/DX2                !
 ! D25   D(7,6,9,12)            60.0178         estimate D2E/DX2                !
 ! D26   D(8,6,9,10)           -59.9821         estimate D2E/DX2                !
 ! D27   D(8,6,9,11)            60.0179         estimate D2E/DX2                !
 ! D28   D(8,6,9,12)          -179.9821         estimate D2E/DX2                !
 ! D29   D(6,9,11,13)           -0.0047         estimate D2E/DX2                !
 ! D30   D(6,9,11,14)          179.9953         estimate D2E/DX2                !
 ! D31   D(10,9,11,13)         119.9953         estimate D2E/DX2                !
 ! D32   D(10,9,11,14)         -60.0047         estimate D2E/DX2                !
 ! D33   D(12,9,11,13)        -120.0047         estimate D2E/DX2                !
 ! D34   D(12,9,11,14)          59.9953         estimate D2E/DX2                !
 ! D35   D(6,9,12,18)           30.8666         estimate D2E/DX2                !
 ! D36   D(6,9,12,19)          150.8666         estimate D2E/DX2                !
 ! D37   D(10,9,12,18)         -89.1334         estimate D2E/DX2                !
 ! D38   D(10,9,12,19)          30.8666         estimate D2E/DX2                !
 ! D39   D(11,9,12,18)         150.8665         estimate D2E/DX2                !
 ! D40   D(11,9,12,19)         -89.1335         estimate D2E/DX2                !
 ! D41   D(9,11,14,17)         179.8924         estimate D2E/DX2                !
 ! D42   D(13,11,14,17)         -0.1076         estimate D2E/DX2                !
 ! D43   D(11,14,17,22)       -158.695          estimate D2E/DX2                !
 ! D44   D(14,17,22,21)        -22.3711         estimate D2E/DX2                !
 ! D45   D(23,21,22,17)       -171.1347         estimate D2E/DX2                !
 --------------------------------------------------------------------------------
 Trust Radius=3.00D-01 FncErr=1.00D-07 GrdErr=1.00D-06
 Number of steps in this run=    111 maximum allowed number of steps=    138.
 GradGradGradGradGradGradGradGradGradGradGradGradGradGradGradGradGradGrad

                          Input orientation:                          
 ---------------------------------------------------------------------
 Center     Atomic      Atomic             Coordinates (Angstroms)
 Number     Number       Type             X           Y           Z
 ---------------------------------------------------------------------
      1          6           0       -1.121464   -0.611181   -0.169284
      2          7           0       -0.388987   -1.885692   -0.169284
      3          6           0       -2.661464   -0.611181   -0.169284
      4          1           0       -3.018131   -1.113422   -1.044181
      5          1           0       -3.018131   -1.117743    0.703117
      6          6           0       -3.174798    0.840740   -0.165694
      7          1           0       -2.818849    1.347049   -1.038535
      8          1           0       -2.817414    1.343236    0.708763
      9          6           0       -4.714797    0.840737   -0.164428
     10          1           0       -5.070745    0.334699    0.708571
     11          6           0       -5.228131    2.292659   -0.161290
     12          7           0       -5.205783    0.150018   -1.365569
     13          8           0       -4.220080    3.045921   -0.160610
     14          8           0       -6.541068    2.859311   -0.159237
     15          1           0        0.611011   -1.887672   -0.169284
     16          1           0       -0.890701   -2.750725   -0.169284
     17          1           0       -6.476215    3.817112   -0.155768
     18          1           0       -4.554120   -0.560395   -1.631368
     19          1           0       -6.093167   -0.267736   -1.170552
     20          8           0       -0.494424    0.479869   -0.169284
     21          8           0       -9.058352    8.826659    0.625595
     22          1           0       -8.098352    8.826659    0.625595
     23          1           0       -9.378807    9.731595    0.625595
 ---------------------------------------------------------------------
                    Distance matrix (angstroms):
                    1          2          3          4          5
     1  C    0.000000
     2  N    1.470000   0.000000
     3  C    1.540000   2.605481   0.000000
     4  H    2.148263   2.876498   1.070000   0.000000
     5  H    2.148263   2.874583   1.070000   1.747303   0.000000
     6  C    2.514810   3.897972   1.540000   2.148263   2.148263
     7  H    2.733382   4.136477   2.148263   2.468534   3.024610
     8  H    2.732574   4.134513   2.148263   3.024610   2.469157
     9  C    3.875581   5.113323   2.514809   2.733382   2.732573
    10  H    4.154773   5.255438   2.733122   3.063073   2.514527
    11  C    5.029619   6.393434   3.875581   4.155115   4.154774
    12  N    4.323446   5.364395   2.912744   2.546643   3.266880
    13  O    4.793317   6.244850   3.975393   4.418768   4.418914
    14  O    6.435566   7.769379   5.205357   5.383011   5.382536
    15  H    2.151953   1.000000   3.512624   3.812555   3.811108
    16  H    2.151953   1.000000   2.777274   2.823502   2.820225
    17  H    6.948620   8.341253   5.844851   6.087511   6.086774
    18  H    3.731406   4.608951   2.392157   1.734904   2.849512
    19  H    5.083141   6.013152   3.591250   3.191709   3.699865
    20  O    1.258400   2.367909   2.426202   3.110163   3.111679
    21  O   12.357137  13.803774  11.429122  11.750644  11.635352
    22  H   11.763572  13.221974  10.920825  11.287250  11.167175
    23  H   13.258527  14.710882  12.358298  12.683089  12.576659
                    6          7          8          9         10
     6  C    0.000000
     7  H    1.070000   0.000000
     8  H    1.070000   1.747303   0.000000
     9  C    1.540000   2.148263   2.148263   0.000000
    10  H    2.148263   3.024610   2.468734   1.070000   0.000000
    11  C    2.514809   2.732833   2.733122   1.540000   2.148263
    12  N    2.457987   2.690221   3.380966   1.470000   2.086720
    13  O    2.440382   2.370731   2.371164   2.259999   2.971503
    14  O    3.925104   4.112786   4.113090   2.722119   3.047721
    15  H    4.666540   4.794055   4.792059   5.984018   6.163758
    16  H    4.256258   4.611410   4.609090   5.246173   5.269083
    17  H    4.445024   4.500757   4.500478   3.458537   3.853521
    18  H    2.452328   2.645933   3.480830   2.034920   2.558009
    19  H    3.279533   3.653234   4.105803   2.034920   2.222471
    20  O    2.704560   2.628792   2.629192   4.235776   4.662019
    21  O    9.950741   9.881563   9.744632   9.124997   9.381966
    22  H    9.415010   9.305216   9.159522   8.709049   9.015912
    23  H   10.870288  10.775109  10.650040  10.070972  10.337695
                   11         12         13         14         15
    11  C    0.000000
    12  N    2.457987   0.000000
    13  O    1.258400   3.287825   0.000000
    14  O    1.430000   3.252459   2.328477   0.000000
    15  H    7.181282   6.278405   6.905060   8.584065   0.000000
    16  H    6.651999   5.335292   6.684755   7.962364   1.732051
    17  H    1.970203   4.065119   2.384304   0.960000   9.097995
    18  H    3.279533   1.000000   3.908993   4.220132   5.529732
    19  H    2.884877   1.000000   3.938116   3.316895   6.969414
    20  O    5.068950   4.872043   4.523849   6.497980   2.612898
    21  O    7.614653   9.700058   7.579177   6.523950  14.454249
    22  H    7.179869   9.360331   7.005430   6.216940  13.830464
    23  H    8.554827  10.638867   8.481086   7.476430  15.343913
                   16         17         18         19         20
    16  H    0.000000
    17  H    8.621753   0.000000
    18  H    4.511748   5.003440   0.000000
    19  H    5.850934   4.226404   1.632993   0.000000
    20  O    3.254808   6.849759   4.438578   5.736495   0.000000
    21  O   14.190778   5.689774  10.653580   9.732753  11.985057
    22  H   13.660816   5.323291  10.284564   9.484457  11.319031
    23  H   15.115822   6.634507  11.588639  10.677461  12.851401
                   21         22         23
    21  O    0.000000
    22  H    0.960000   0.000000
    23  H    0.960000   1.567952   0.000000
 Stoichiometry    C5H12N2O4
 Framework group  C1[X(C5H12N2O4)]
 Deg. of freedom    63
 Full point group                 C1      NOp   1
 Largest Abelian subgroup         C1      NOp   1
 Largest concise Abelian subgroup C1      NOp   1
                         Standard orientation:                         
 ---------------------------------------------------------------------
 Center     Atomic      Atomic             Coordinates (Angstroms)
 Number     Number       Type             X           Y           Z
 ---------------------------------------------------------------------
      1          6           0       -3.591758   -0.775861    0.022278
      2          7           0       -5.033328   -0.531995    0.174937
      3          6           0       -2.589403    0.365645    0.274961
      4          1           0       -2.787666    1.170651   -0.401468
      5          1           0       -2.690661    0.712820    1.281995
      6          6           0       -1.155961   -0.151128    0.051822
      7          1           0       -1.054453   -0.497499   -0.955463
      8          1           0       -0.957997   -0.956708    0.727656
      9          6           0       -0.153537    0.990046    0.305726
     10          1           0       -0.254832    1.336207    1.313104
     11          6           0        1.279879    0.473392    0.082150
     12          7           0       -0.425778    2.096952   -0.622469
     13          8           0        1.194024   -0.739011   -0.243853
     14          8           0        2.563521    1.096232    0.178246
     15          1           0       -5.685705   -1.272008    0.011281
     16          1           0       -5.361610    0.373915    0.442444
     17          1           0        3.246573    0.455958   -0.034098
     18          1           0       -1.402974    2.122532   -0.833257
     19          1           0       -0.153248    2.961214   -0.199645
     20          8           0       -3.173951   -1.914196   -0.314177
     21          8           0        8.764346   -0.928586    0.069549
     22          1           0        8.139501   -1.640174   -0.087969
     23          1           0        9.657967   -1.249705   -0.071598
 ---------------------------------------------------------------------
 Rotational constants (GHZ):      2.1912661      0.2091979      0.1934608
 Standard basis: 6-31G(d) (6D, 7F)
 There are   189 symmetry adapted cartesian basis functions of A   symmetry.
 There are   189 symmetry adapted basis functions of A   symmetry.
   189 basis functions,   356 primitive gaussians,   189 cartesian basis functions
    44 alpha electrons       44 beta electrons
       nuclear repulsion energy       584.6568666029 Hartrees.
 NAtoms=   23 NActive=   23 NUniq=   23 SFac= 1.00D+00 NAtFMM=   60 NAOKFM=F Big=F
 Integral buffers will be    131072 words long.
 Raffenetti 2 integral format.
 Two-electron integral symmetry is turned on.
 One-electron integrals computed using PRISM.
 NBasis=   189 RedAO= T EigKep=  1.79D-03  NBF=   189
 NBsUse=   189 1.00D-06 EigRej= -1.00D+00 NBFU=   189
 ExpMin= 1.61D-01 ExpMax= 5.48D+03 ExpMxC= 8.25D+02 IAcc=1 IRadAn=         1 AccDes= 0.00D+00
 Harris functional with IExCor=  402 and IRadAn=       1 diagonalized for initial guess.
 HarFok:  IExCor=  402 AccDes= 0.00D+00 IRadAn=         1 IDoV= 1 UseB2=F ITyADJ=14
 ICtDFT=  3500011 ScaDFX=  1.000000  1.000000  1.000000  1.000000
 FoFCou: FMM=F IPFlag=           0 FMFlag=      100000 FMFlg1=           0
         NFxFlg=           0 DoJE=T BraDBF=F KetDBF=T FulRan=T
         wScrn=  0.000000 ICntrl=     500 IOpCl=  0 I1Cent=   200000004 NGrid=           0
         NMat0=    1 NMatS0=      1 NMatT0=    0 NMatD0=    1 NMtDS0=    0 NMtDT0=    0
 Petite list used in FoFCou.
 Requested convergence on RMS density matrix=1.00D-08 within 128 cycles.
 Requested convergence on MAX density matrix=1.00D-06.
 Requested convergence on             energy=1.00D-06.
 No special actions if energy rises.
 Integral accuracy reduced to 1.0D-05 until final iterations.
 Initial convergence to 1.0D-05 achieved.  Increase integral accuracy.
 SCF Done:  E(RB3LYP) =  -608.093584539     A.U. after   15 cycles
            NFock= 15  Conv=0.92D-08     -V/T= 2.0093

 **********************************************************************

            Population analysis using the SCF density.

 **********************************************************************

 Orbital symmetries:
       Occupied  (A) (A) (A) (A) (A) (A) (A) (A) (A) (A) (A) (A)
                 (A) (A) (A) (A) (A) (A) (A) (A) (A) (A) (A) (A)
                 (A) (A) (A) (A) (A) (A) (A) (A) (A) (A) (A) (A)
                 (A) (A) (A) (A) (A) (A) (A) (A)
       Virtual   (A) (A) (A) (A) (A) (A) (A) (A) (A) (A) (A) (A)
                 (A) (A) (A) (A) (A) (A) (A) (A) (A) (A) (A) (A)
                 (A) (A) (A) (A) (A) (A) (A) (A) (A) (A) (A) (A)
                 (A) (A) (A) (A) (A) (A) (A) (A) (A) (A) (A) (A)
                 (A) (A) (A) (A) (A) (A) (A) (A) (A) (A) (A) (A)
                 (A) (A) (A) (A) (A) (A) (A) (A) (A) (A) (A) (A)
                 (A) (A) (A) (A) (A) (A) (A) (A) (A) (A) (A) (A)
                 (A) (A) (A) (A) (A) (A) (A) (A) (A) (A) (A) (A)
                 (A) (A) (A) (A) (A) (A) (A) (A) (A) (A) (A) (A)
                 (A) (A) (A) (A) (A) (A) (A) (A) (A) (A) (A) (A)
                 (A) (A) (A) (A) (A) (A) (A) (A) (A) (A) (A) (A)
                 (A) (A) (A) (A) (A) (A) (A) (A) (A) (A) (A) (A)
                 (A)
 The electronic state is 1-A.
 Alpha  occ. eigenvalues --  -19.19302 -19.13367 -19.13036 -19.12022 -14.35637
 Alpha  occ. eigenvalues --  -14.31935 -10.32346 -10.30506 -10.23842 -10.20510
 Alpha  occ. eigenvalues --  -10.18023  -1.07170  -1.01134  -0.99669  -0.99429
 Alpha  occ. eigenvalues --   -0.90196  -0.88236  -0.78796  -0.71743  -0.64727
 Alpha  occ. eigenvalues --   -0.58653  -0.56263  -0.53441  -0.53028  -0.52080
 Alpha  occ. eigenvalues --   -0.50285  -0.47981  -0.46320  -0.46266  -0.45523
 Alpha  occ. eigenvalues --   -0.40646  -0.39575  -0.38328  -0.37277  -0.36372
 Alpha  occ. eigenvalues --   -0.36114  -0.35227  -0.34630  -0.30595  -0.29001
 Alpha  occ. eigenvalues --   -0.26923  -0.26249  -0.25192  -0.23455
 Alpha virt. eigenvalues --   -0.00696   0.00761   0.06380   0.06559   0.07239
 Alpha virt. eigenvalues --    0.08123   0.11620   0.12298   0.13416   0.15189
 Alpha virt. eigenvalues --    0.15282   0.16964   0.18105   0.19003   0.20594
 Alpha virt. eigenvalues --    0.22525   0.23052   0.25462   0.27219   0.30195
 Alpha virt. eigenvalues --    0.32272   0.36138   0.41299   0.51964   0.53451
 Alpha virt. eigenvalues --    0.53759   0.55460   0.55912   0.58112   0.61457
 Alpha virt. eigenvalues --    0.63544   0.64638   0.65419   0.66934   0.69336
 Alpha virt. eigenvalues --    0.69969   0.70350   0.74018   0.74677   0.76767
 Alpha virt. eigenvalues --    0.80020   0.80650   0.82056   0.83503   0.84872
 Alpha virt. eigenvalues --    0.85863   0.87576   0.88532   0.89080   0.89191
 Alpha virt. eigenvalues --    0.89196   0.89476   0.90230   0.90548   0.91919
 Alpha virt. eigenvalues --    0.92789   0.94559   0.95840   0.96853   0.98251
 Alpha virt. eigenvalues --    0.98773   1.01117   1.04039   1.07114   1.07334
 Alpha virt. eigenvalues --    1.09993   1.14135   1.16064   1.17496   1.17577
 Alpha virt. eigenvalues --    1.20987   1.28026   1.30962   1.32955   1.37710
 Alpha virt. eigenvalues --    1.40676   1.42973   1.43178   1.57805   1.60541
 Alpha virt. eigenvalues --    1.62445   1.64120   1.66033   1.67665   1.68973
 Alpha virt. eigenvalues --    1.73504   1.73969   1.74214   1.74478   1.75766
 Alpha virt. eigenvalues --    1.77415   1.78521   1.79778   1.80865   1.84808
 Alpha virt. eigenvalues --    1.86372   1.88069   1.91121   1.94017   1.95317
 Alpha virt. eigenvalues --    1.98181   1.99839   2.00825   2.04218   2.05559
 Alpha virt. eigenvalues --    2.10380   2.12978   2.15438   2.21263   2.23135
 Alpha virt. eigenvalues --    2.25407   2.27688   2.29869   2.32818   2.36202
 Alpha virt. eigenvalues --    2.39164   2.41160   2.43211   2.47940   2.52628
 Alpha virt. eigenvalues --    2.53734   2.55554   2.57004   2.57284   2.59335
 Alpha virt. eigenvalues --    2.64435   2.68451   2.73419   2.82402   2.87188
 Alpha virt. eigenvalues --    2.95298   2.95750   2.98710   3.03175   3.56626
 Alpha virt. eigenvalues --    3.75860   3.79827   3.86609   3.98222   4.04173
 Alpha virt. eigenvalues --    4.17556   4.24171   4.36842   4.47153   4.67309
          Condensed to atoms (all electrons):
               1          2          3          4          5          6
     1  C    4.369136   0.285981   0.285782  -0.017297  -0.022133  -0.029397
     2  N    0.285981   7.068746  -0.105372   0.002139   0.001846   0.002994
     3  C    0.285782  -0.105372   5.430525   0.339425   0.348165   0.306764
     4  H   -0.017297   0.002139   0.339425   0.580102  -0.034563  -0.033938
     5  H   -0.022133   0.001846   0.348165  -0.034563   0.564935  -0.029845
     6  C   -0.029397   0.002994   0.306764  -0.033938  -0.029845   5.018175
     7  H   -0.002659   0.000148  -0.043303  -0.004581   0.005309   0.386670
     8  H   -0.001517   0.000155  -0.040562   0.005277  -0.004264   0.387154
     9  C    0.004598  -0.000003  -0.036377  -0.005551  -0.002891   0.348041
    10  H   -0.000357   0.000000  -0.006760  -0.000318   0.005850  -0.040377
    11  C   -0.000027   0.000000   0.005611  -0.000084  -0.000110  -0.039447
    12  N    0.000335  -0.000002  -0.008320  -0.000711  -0.000750  -0.043525
    13  O   -0.000032   0.000000   0.002700  -0.000030  -0.000014  -0.011288
    14  O    0.000000   0.000000   0.000004  -0.000001   0.000000   0.001537
    15  H   -0.003586   0.295793   0.005676  -0.000127  -0.000136  -0.000111
    16  H   -0.014853   0.299192   0.004602   0.000610   0.000472  -0.000098
    17  H    0.000000   0.000000   0.000000   0.000000   0.000000  -0.000134
    18  H   -0.000071  -0.000008   0.003418   0.013405   0.000052  -0.010530
    19  H    0.000015   0.000000   0.000608  -0.000236  -0.000093   0.005186
    20  O    0.564011  -0.077418  -0.094837   0.000952   0.000994   0.007025
    21  O    0.000000   0.000000   0.000000   0.000000   0.000000   0.000000
    22  H    0.000000   0.000000   0.000000   0.000000   0.000000   0.000000
    23  H    0.000000   0.000000   0.000000   0.000000   0.000000   0.000000
               7          8          9         10         11         12
     1  C   -0.002659  -0.001517   0.004598  -0.000357  -0.000027   0.000335
     2  N    0.000148   0.000155  -0.000003   0.000000   0.000000  -0.000002
     3  C   -0.043303  -0.040562  -0.036377  -0.006760   0.005611  -0.008320
     4  H   -0.004581   0.005277  -0.005551  -0.000318  -0.000084  -0.000711
     5  H    0.005309  -0.004264  -0.002891   0.005850  -0.000110  -0.000750
     6  C    0.386670   0.387154   0.348041  -0.040377  -0.039447  -0.043525
     7  H    0.518402  -0.022594  -0.034895   0.006396  -0.006886  -0.000533
     8  H   -0.022594   0.521207  -0.031664  -0.002007  -0.003415   0.003736
     9  C   -0.034895  -0.031664   5.123347   0.349128   0.314500   0.274969
    10  H    0.006396  -0.002007   0.349128   0.652447  -0.048867  -0.053276
    11  C   -0.006886  -0.003415   0.314500  -0.048867   4.446566  -0.051114
    12  N   -0.000533   0.003736   0.274969  -0.053276  -0.051114   6.972872
    13  O    0.004494   0.003088  -0.102990   0.003479   0.510201   0.001157
    14  O   -0.000001  -0.000013  -0.058217   0.001779   0.255354   0.002317
    15  H   -0.000002  -0.000002   0.000000   0.000000   0.000000   0.000000
    16  H   -0.000004  -0.000003  -0.000013   0.000000   0.000000   0.000001
    17  H   -0.000009   0.000000   0.006185  -0.000347  -0.000385  -0.000353
    18  H    0.000479   0.000207  -0.042919   0.001798   0.004131   0.320233
    19  H   -0.000075  -0.000242  -0.025935  -0.008737  -0.000613   0.311598
    20  O    0.004150   0.003906   0.001085   0.000002  -0.000025  -0.000011
    21  O    0.000000   0.000000   0.000000   0.000000   0.000000   0.000000
    22  H    0.000000   0.000000   0.000000   0.000000   0.000000   0.000000
    23  H    0.000000   0.000000   0.000000   0.000000   0.000000   0.000000
              13         14         15         16         17         18
     1  C   -0.000032   0.000000  -0.003586  -0.014853   0.000000  -0.000071
     2  N    0.000000   0.000000   0.295793   0.299192   0.000000  -0.000008
     3  C    0.002700   0.000004   0.005676   0.004602   0.000000   0.003418
     4  H   -0.000030  -0.000001  -0.000127   0.000610   0.000000   0.013405
     5  H   -0.000014   0.000000  -0.000136   0.000472   0.000000   0.000052
     6  C   -0.011288   0.001537  -0.000111  -0.000098  -0.000134  -0.010530
     7  H    0.004494  -0.000001  -0.000002  -0.000004  -0.000009   0.000479
     8  H    0.003088  -0.000013  -0.000002  -0.000003   0.000000   0.000207
     9  C   -0.102990  -0.058217   0.000000  -0.000013   0.006185  -0.042919
    10  H    0.003479   0.001779   0.000000   0.000000  -0.000347   0.001798
    11  C    0.510201   0.255354   0.000000   0.000000  -0.000385   0.004131
    12  N    0.001157   0.002317   0.000000   0.000001  -0.000353   0.320233
    13  O    8.103742  -0.072792   0.000000   0.000000   0.010643  -0.000183
    14  O   -0.072792   8.257199   0.000000   0.000000   0.216115  -0.000071
    15  H    0.000000   0.000000   0.370786  -0.021483   0.000000   0.000000
    16  H    0.000000   0.000000  -0.021483   0.399600   0.000000  -0.000002
    17  H    0.010643   0.216115   0.000000   0.000000   0.349112   0.000009
    18  H   -0.000183  -0.000071   0.000000  -0.000002   0.000009   0.429831
    19  H   -0.000094   0.000696   0.000000   0.000000   0.000011  -0.030706
    20  O    0.000007   0.000000   0.006140   0.002850   0.000000   0.000009
    21  O    0.000000   0.000000   0.000000   0.000000   0.000000   0.000000
    22  H    0.000000   0.000000   0.000000   0.000000   0.000000   0.000000
    23  H    0.000000   0.000000   0.000000   0.000000   0.000000   0.000000
              19         20         21         22         23
     1  C    0.000015   0.564011   0.000000   0.000000   0.000000
     2  N    0.000000  -0.077418   0.000000   0.000000   0.000000
     3  C    0.000608  -0.094837   0.000000   0.000000   0.000000
     4  H   -0.000236   0.000952   0.000000   0.000000   0.000000
     5  H   -0.000093   0.000994   0.000000   0.000000   0.000000
     6  C    0.005186   0.007025   0.000000   0.000000   0.000000
     7  H   -0.000075   0.004150   0.000000   0.000000   0.000000
     8  H   -0.000242   0.003906   0.000000   0.000000   0.000000
     9  C   -0.025935   0.001085   0.000000   0.000000   0.000000
    10  H   -0.008737   0.000002   0.000000   0.000000   0.000000
    11  C   -0.000613  -0.000025   0.000000   0.000000   0.000000
    12  N    0.311598  -0.000011   0.000000   0.000000   0.000000
    13  O   -0.000094   0.000007   0.000000   0.000000   0.000000
    14  O    0.000696   0.000000   0.000000   0.000000   0.000000
    15  H    0.000000   0.006140   0.000000   0.000000   0.000000
    16  H    0.000000   0.002850   0.000000   0.000000   0.000000
    17  H    0.000011   0.000000   0.000000   0.000000   0.000000
    18  H   -0.030706   0.000009   0.000000   0.000000   0.000000
    19  H    0.439790   0.000000   0.000000   0.000000   0.000000
    20  O    0.000000   8.065017   0.000000   0.000000   0.000000
    21  O    0.000000   0.000000   8.292713   0.247328   0.247625
    22  H    0.000000   0.000000   0.247328   0.380100  -0.020999
    23  H    0.000000   0.000000   0.247625  -0.020999   0.379278
 Mulliken charges:
               1
     1  C    0.582068
     2  N   -0.774192
     3  C   -0.397749
     4  H    0.155525
     5  H    0.167176
     6  C   -0.224855
     7  H    0.189495
     8  H    0.181552
     9  C   -0.080398
    10  H    0.140167
    11  C    0.614608
    12  N   -0.728625
    13  O   -0.452088
    14  O   -0.603906
    15  H    0.347053
    16  H    0.329128
    17  H    0.419153
    18  H    0.310919
    19  H    0.308826
    20  O   -0.483857
    21  O   -0.787665
    22  H    0.393570
    23  H    0.394095
 Sum of Mulliken charges =   0.00000
 Mulliken charges with hydrogens summed into heavy atoms:
               1
     1  C    0.582068
     2  N   -0.098011
     3  C   -0.075048
     6  C    0.146192
     9  C    0.059769
    11  C    0.614608
    12  N   -0.108880
    13  O   -0.452088
    14  O   -0.184754
    20  O   -0.483857
    21  O    0.000000
 Electronic spatial extent (au):  <R**2>=           5313.6559
 Charge=              0.0000 electrons
 Dipole moment (field-independent basis, Debye):
    X=             -2.0052    Y=              2.2037    Z=              1.6570  Tot=              3.4092
 Quadrupole moment (field-independent basis, Debye-Ang):
   XX=            -30.2820   YY=            -65.3309   ZZ=            -67.2102
   XY=            -26.4185   XZ=             -7.5609   YZ=              1.4002
 Traceless Quadrupole moment (field-independent basis, Debye-Ang):
   XX=             23.9923   YY=            -11.0565   ZZ=            -12.9359
   XY=            -26.4185   XZ=             -7.5609   YZ=              1.4002
 Octapole moment (field-independent basis, Debye-Ang**2):
  XXX=            108.5873  YYY=              9.6252  ZZZ=              0.9354  XYY=             47.0623
  XXY=           -136.3658  XXZ=            -34.8017  XZZ=              7.6583  YZZ=             -4.4556
  YYZ=              5.0989  XYZ=              7.5539
 Hexadecapole moment (field-independent basis, Debye-Ang**3):
 XXXX=          -2061.7009 YYYY=           -522.3756 ZZZZ=           -110.7657 XXXY=          -1374.5399
 XXXZ=           -435.7326 YYYX=           -135.7082 YYYZ=              4.5318 ZZZX=              1.9631
 ZZZY=              8.5492 XXYY=           -703.0870 XXZZ=          -1000.6405 YYZZ=           -119.8042
 XXYZ=             55.6643 YYXZ=            -11.6766 ZZXY=             -9.0912
 N-N= 5.846568666029D+02 E-N=-2.593199392832D+03  KE= 6.024727880205D+02
 Calling FoFJK, ICntrl=      2127 FMM=F ISym2X=0 I1Cent= 0 IOpClX= 0 NMat=1 NMatS=1 NMatT=0.
 ***** Axes restored to original set *****
 -------------------------------------------------------------------
 Center     Atomic                   Forces (Hartrees/Bohr)
 Number     Number              X              Y              Z
 -------------------------------------------------------------------
      1        6           0.059943433    0.010509540   -0.000478041
      2        7          -0.050300109    0.057839599   -0.000017177
      3        6           0.025016530    0.017459172    0.002296680
      4        1          -0.000574328   -0.015560519   -0.011240245
      5        1          -0.006280693   -0.014037914    0.013378124
      6        6          -0.014789235   -0.022511464    0.002464696
      7        1           0.005551226    0.008593608   -0.008795062
      8        1           0.006647626    0.007893007    0.008010866
      9        6          -0.024386646   -0.009579520   -0.020517833
     10        1          -0.005999411   -0.007540138    0.022289121
     11        6           0.058339189    0.077630913    0.000312943
     12        7          -0.002203951    0.019557166   -0.002098343
     13        8          -0.067354757    0.001373811    0.001036308
     14        8           0.031914717   -0.065922085    0.000510488
     15        1           0.007219334    0.003657447   -0.000015324
     16        1          -0.001891052   -0.007999658    0.000033886
     17        1           0.014102924    0.012073688   -0.000636752
     18        1           0.001276325   -0.009846538   -0.005162173
     19        1          -0.012630998   -0.008333610   -0.001549401
     20        8          -0.023695050   -0.055248700    0.000177390
     21        8          -0.012101703   -0.017385485    0.000001027
     22        1           0.005588296    0.009172546    0.000010829
     23        1           0.006608334    0.008205134   -0.000012007
 -------------------------------------------------------------------
 Cartesian Forces:  Max     0.077630913 RMS     0.023753179

 GradGradGradGradGradGradGradGradGradGradGradGradGradGradGradGradGradGrad
 Berny optimization.
 FormGI is forming the generalized inverse of G from B-inverse, IUseBI=4.
 Internal  Forces:  Max     0.085503840 RMS     0.018256895
 Search for a local minimum.
 Step number   1 out of a maximum of  111
 All quantities printed in internal units (Hartrees-Bohrs-Radians)
 Mixed Optimization -- RFO/linear search
 Second derivative matrix not updated -- first step.
 ITU=  0
     Eigenvalues ---    0.00159   0.00230   0.00237   0.00237   0.00237
     Eigenvalues ---    0.00237   0.00449   0.00541   0.00766   0.00766
     Eigenvalues ---    0.00766   0.01295   0.01558   0.01558   0.03840
     Eigenvalues ---    0.04248   0.04356   0.04828   0.04896   0.05056
     Eigenvalues ---    0.05410   0.06194   0.07655   0.08669   0.11701
     Eigenvalues ---    0.12376   0.16000   0.16000   0.16000   0.16000
     Eigenvalues ---    0.16000   0.16000   0.16000   0.16000   0.16855
     Eigenvalues ---    0.17980   0.21948   0.21983   0.25000   0.25000
     Eigenvalues ---    0.25000   0.25000   0.28519   0.28519   0.28519
     Eigenvalues ---    0.28519   0.35740   0.35740   0.37230   0.37230
     Eigenvalues ---    0.37230   0.37230   0.37230   0.40989   0.47688
     Eigenvalues ---    0.47688   0.47688   0.47688   0.55473   0.55473
     Eigenvalues ---    0.55473   0.80209   0.80209
 RFO step:  Lambda=-8.29924577D-02 EMin= 1.58521082D-03
 Linear search not attempted -- first point.
 Maximum step size (   0.300) exceeded in Quadratic search.
    -- Step size scaled by   0.644
 Iteration  1 RMS(Cart)=  0.12422764 RMS(Int)=  0.00369079
 Iteration  2 RMS(Cart)=  0.00633997 RMS(Int)=  0.00014582
 Iteration  3 RMS(Cart)=  0.00001617 RMS(Int)=  0.00014565
 Iteration  4 RMS(Cart)=  0.00000000 RMS(Int)=  0.00014565
 Variable       Old X    -DE/DX   Delta X   Delta X   Delta X     New X
                                 (Linear)    (Quad)   (Total)
    R1        2.77790  -0.06879   0.00000  -0.10062  -0.10062   2.67728
    R2        2.91018  -0.00872   0.00000  -0.01526  -0.01526   2.89492
    R3        2.37803  -0.05971   0.00000  -0.04345  -0.04345   2.33458
    R4        1.88973   0.00721   0.00000   0.00830   0.00830   1.89802
    R5        1.88973   0.00787   0.00000   0.00905   0.00905   1.89878
    R6        2.02201   0.01669   0.00000   0.02361   0.02361   2.04561
    R7        2.02201   0.01965   0.00000   0.02779   0.02779   2.04980
    R8        2.91018   0.00632   0.00000   0.01106   0.01106   2.92124
    R9        2.02201   0.01309   0.00000   0.01852   0.01852   2.04052
   R10        2.02201   0.01247   0.00000   0.01765   0.01765   2.03965
   R11        2.91018   0.00685   0.00000   0.01198   0.01198   2.92216
   R12        2.02201   0.02375   0.00000   0.03360   0.03360   2.05561
   R13        2.91018   0.01135   0.00000   0.01985   0.01985   2.93003
   R14        2.77790   0.01107   0.00000   0.01619   0.01619   2.79409
   R15        2.37803  -0.05313   0.00000  -0.03867  -0.03867   2.33936
   R16        2.70231  -0.06368   0.00000  -0.08322  -0.08322   2.61909
   R17        1.88973   0.00920   0.00000   0.01058   0.01058   1.90031
   R18        1.88973   0.01439   0.00000   0.01656   0.01656   1.90628
   R19        1.81414   0.01300   0.00000   0.01313   0.01313   1.82726
   R20       10.05956  -0.00004   0.00000  -0.00028  -0.00028  10.05929
   R21        1.81414   0.00549   0.00000   0.00555   0.00555   1.81968
   R22        1.81414   0.00553   0.00000   0.00558   0.00558   1.81972
    A1        2.09241  -0.02075   0.00000  -0.04014  -0.04014   2.05228
    A2        2.09836   0.00207   0.00000   0.00400   0.00400   2.10236
    A3        2.09241   0.01868   0.00000   0.03613   0.03613   2.12855
    A4        2.09440  -0.00613   0.00000  -0.01624  -0.01624   2.07816
    A5        2.09440   0.00531   0.00000   0.01407   0.01407   2.10847
    A6        2.09440   0.00082   0.00000   0.00216   0.00216   2.09656
    A7        1.91063  -0.00593   0.00000  -0.01842  -0.01865   1.89198
    A8        1.91063  -0.00254   0.00000  -0.00891  -0.00903   1.90160
    A9        1.91063   0.00453   0.00000   0.01181   0.01181   1.92244
   A10        1.91063  -0.00265   0.00000  -0.01318  -0.01346   1.89717
   A11        1.91063   0.00580   0.00000   0.02262   0.02267   1.93331
   A12        1.91063   0.00078   0.00000   0.00608   0.00611   1.91674
   A13        1.91063  -0.00121   0.00000   0.00435   0.00412   1.91476
   A14        1.91063  -0.00644   0.00000  -0.01802  -0.01794   1.89269
   A15        1.91063   0.01442   0.00000   0.03347   0.03339   1.94402
   A16        1.91063   0.00038   0.00000  -0.00809  -0.00816   1.90248
   A17        1.91063  -0.00355   0.00000  -0.00301  -0.00333   1.90730
   A18        1.91063  -0.00361   0.00000  -0.00870  -0.00855   1.90209
   A19        1.91063  -0.00723   0.00000  -0.01781  -0.01785   1.89279
   A20        1.91063   0.00883   0.00000   0.02398   0.02426   1.93490
   A21        1.91063   0.01062   0.00000   0.03242   0.03257   1.94321
   A22        1.91063  -0.00184   0.00000  -0.01548  -0.01548   1.89515
   A23        1.91063   0.00344   0.00000   0.01006   0.00978   1.92042
   A24        1.91063  -0.01382   0.00000  -0.03315  -0.03366   1.87697
   A25        1.87269   0.08550   0.00000   0.16539   0.16539   2.03809
   A26        2.31808  -0.07251   0.00000  -0.14026  -0.14026   2.17782
   A27        2.09241  -0.01300   0.00000  -0.02514  -0.02514   2.06728
   A28        1.91063   0.00771   0.00000   0.02119   0.02107   1.93170
   A29        1.91063   0.00620   0.00000   0.01719   0.01707   1.92770
   A30        1.91063  -0.00603   0.00000  -0.01447  -0.01472   1.89592
   A31        1.91063  -0.02473   0.00000  -0.06555  -0.06555   1.84508
   A32        2.73596   0.00049   0.00000   0.00131   0.00131   2.73726
   A33        1.91114  -0.01627   0.00000  -0.04313  -0.04313   1.86801
   A34        1.88045  -0.00038   0.00000  -0.00102  -0.00102   1.87943
    D1        3.14159   0.00001   0.00000   0.00009   0.00009  -3.14151
    D2        0.00000   0.00000   0.00000   0.00002   0.00002   0.00002
    D3        0.00000  -0.00005   0.00000  -0.00034  -0.00034  -0.00034
    D4        3.14159  -0.00006   0.00000  -0.00041  -0.00040   3.14119
    D5       -1.04967   0.00492   0.00000   0.01904   0.01886  -1.03081
    D6        1.04472  -0.00351   0.00000  -0.01385  -0.01372   1.03100
    D7        3.13912  -0.00133   0.00000  -0.00462  -0.00458   3.13454
    D8        2.09192   0.00498   0.00000   0.01946   0.01929   2.11121
    D9       -2.09687  -0.00346   0.00000  -0.01342  -0.01329  -2.11016
   D10       -0.00247  -0.00127   0.00000  -0.00420  -0.00415  -0.00663
   D11        1.04807  -0.00243   0.00000  -0.00869  -0.00871   1.03936
   D12       -1.04633   0.00178   0.00000   0.00959   0.00958  -1.03674
   D13       -3.14072   0.00131   0.00000   0.01079   0.01095  -3.12977
   D14       -1.04633  -0.00149   0.00000  -0.00721  -0.00732  -1.05365
   D15       -3.14072   0.00272   0.00000   0.01107   0.01097  -3.12975
   D16        1.04807   0.00225   0.00000   0.01227   0.01234   1.06041
   D17       -3.14072  -0.00228   0.00000  -0.00864  -0.00870   3.13376
   D18        1.04807   0.00193   0.00000   0.00964   0.00959   1.05766
   D19       -1.04633   0.00146   0.00000   0.01084   0.01096  -1.03537
   D20        1.04751  -0.00134   0.00000  -0.01109  -0.01118   1.03633
   D21       -3.14128  -0.00261   0.00000  -0.02627  -0.02651   3.11540
   D22       -1.04689  -0.00763   0.00000  -0.03234  -0.03208  -1.07896
   D23       -3.14128   0.00384   0.00000   0.01290   0.01283  -3.12845
   D24       -1.04689   0.00256   0.00000  -0.00229  -0.00250  -1.04939
   D25        1.04751  -0.00246   0.00000  -0.00836  -0.00807   1.03944
   D26       -1.04689  -0.00007   0.00000  -0.00418  -0.00424  -1.05113
   D27        1.04751  -0.00135   0.00000  -0.01937  -0.01957   1.02794
   D28       -3.14128  -0.00637   0.00000  -0.02544  -0.02514   3.11676
   D29       -0.00008   0.00440   0.00000   0.01362   0.01350   0.01341
   D30        3.14151   0.00476   0.00000   0.01623   0.01616  -3.12552
   D31        2.09431  -0.00017   0.00000  -0.00299  -0.00326   2.09105
   D32       -1.04728   0.00018   0.00000  -0.00039  -0.00060  -1.04788
   D33       -2.09448  -0.00555   0.00000  -0.02046  -0.02015  -2.11463
   D34        1.04712  -0.00519   0.00000  -0.01785  -0.01749   1.02963
   D35        0.53872  -0.00295   0.00000  -0.00655  -0.00631   0.53241
   D36        2.63312  -0.00182   0.00000  -0.00077  -0.00039   2.63272
   D37       -1.55567  -0.00271   0.00000  -0.01074  -0.01099  -1.56666
   D38        0.53872  -0.00158   0.00000  -0.00496  -0.00507   0.53365
   D39        2.63312   0.00590   0.00000   0.02236   0.02216   2.65528
   D40       -1.55567   0.00703   0.00000   0.02815   0.02808  -1.52759
   D41        3.13971   0.00043   0.00000   0.00277   0.00285  -3.14062
   D42       -0.00188   0.00082   0.00000   0.00564   0.00555   0.00368
   D43       -2.76975   0.00009   0.00000   0.00062   0.00062  -2.76913
   D44       -0.39045   0.00003   0.00000   0.00026   0.00026  -0.39018
   D45       -2.98686   0.00002   0.00000   0.00014   0.00014  -2.98672
         Item               Value     Threshold  Converged?
 Maximum Force            0.085504     0.000450     NO 
 RMS     Force            0.018257     0.000300     NO 
 Maximum Displacement     0.432937     0.001800     NO 
 RMS     Displacement     0.123361     0.001200     NO 
 Predicted change in Energy=-4.029128D-02
 GradGradGradGradGradGradGradGradGradGradGradGradGradGradGradGradGradGrad

                          Input orientation:                          
 ---------------------------------------------------------------------
 Center     Atomic      Atomic             Coordinates (Angstroms)
 Number     Number       Type             X           Y           Z
 ---------------------------------------------------------------------
      1          6           0       -1.094038   -0.683075   -0.170777
      2          7           0       -0.483926   -1.961090   -0.130293
      3          6           0       -2.624930   -0.627239   -0.163540
      4          1           0       -2.990855   -1.172600   -1.024045
      5          1           0       -2.990863   -1.110628    0.735916
      6          6           0       -3.104341    0.841913   -0.201162
      7          1           0       -2.732535    1.323533   -1.093221
      8          1           0       -2.709707    1.352144    0.664227
      9          6           0       -4.647872    0.932087   -0.177767
     10          1           0       -5.006799    0.455336    0.731707
     11          6           0       -5.114649    2.410662   -0.177926
     12          7           0       -5.243083    0.276713   -1.361987
     13          8           0       -4.229043    3.275021   -0.210740
     14          8           0       -6.437640    2.822053   -0.141236
     15          1           0        0.518508   -2.023643   -0.134059
     16          1           0       -1.041199   -2.796563   -0.098120
     17          1           0       -6.411775    3.788588   -0.152435
     18          1           0       -4.665344   -0.484810   -1.674285
     19          1           0       -6.159499   -0.083151   -1.142258
     20          8           0       -0.402590    0.339963   -0.209797
     21          8           0       -9.167759    8.702657    0.643567
     22          1           0       -8.206107    8.741472    0.612546
     23          1           0       -9.486926    9.611174    0.639983
 ---------------------------------------------------------------------
                    Distance matrix (angstroms):
                    1          2          3          4          5
     1  C    0.000000
     2  N    1.416756   0.000000
     3  C    1.531927   2.522729   0.000000
     4  H    2.136730   2.775824   1.082492   0.000000
     5  H    2.145423   2.785378   1.084708   1.761051   0.000000
     6  C    2.523456   3.837763   1.545852   2.179054   2.168734
     7  H    2.749918   4.095390   2.163653   2.510418   3.055751
     8  H    2.729420   4.069752   2.147170   3.050186   2.479805
     9  C    3.903657   5.070619   2.554211   2.809199   2.784454
    10  H    4.173746   5.199860   2.765273   3.129996   2.552697
    11  C    5.073123   6.368523   3.927818   4.250434   4.212489
    12  N    4.422075   5.401334   3.017968   2.699490   3.376153
    13  O    5.049394   6.438108   4.219365   4.687847   4.654370
    14  O    6.390687   7.637100   5.141485   5.349480   5.302419
    15  H    2.097326   1.004391   3.439770   3.719136   3.729093
    16  H    2.115397   1.004790   2.686718   2.701065   2.709093
    17  H    6.947981   8.258250   5.817203   6.088989   6.041037
    18  H    3.879957   4.695483   2.542818   1.923481   3.000767
    19  H    5.192550   6.063238   3.707708   3.352787   3.824069
    20  O    1.235406   2.303862   2.424131   3.106438   3.114119
    21  O   12.407260  13.774009  11.423966  11.766724  11.595825
    22  H   11.832886  13.218499  10.932730  11.321047  11.147998
    23  H   13.306745  14.682119  12.351426  12.698729  12.536550
                    6          7          8          9         10
     6  C    0.000000
     7  H    1.079799   0.000000
     8  H    1.079338   1.757829   0.000000
     9  C    1.546340   2.158657   2.154504   0.000000
    10  H    2.153842   3.042434   2.466870   1.087780   0.000000
    11  C    2.550070   2.773822   2.759245   1.550505   2.159251
    12  N    2.498235   2.733298   3.417614   1.478569   2.114543
    13  O    2.680496   2.612779   2.602193   2.380303   3.073066
    14  O    3.877555   4.108484   4.087406   2.603186   2.900118
    15  H    4.619626   4.763702   4.738625   5.952288   6.117508
    16  H    4.183979   4.563555   4.536173   5.188186   5.195137
    17  H    4.429942   4.527514   4.506496   3.357319   3.723740
    18  H    2.523294   2.709888   3.559150   2.060938   2.605622
    19  H    3.327971   3.704760   4.150244   2.060574   2.265046
    20  O    2.747997   2.678897   2.666687   4.286497   4.700902
    21  O    9.963429   9.943844   9.784524   9.026945   9.237947
    22  H    9.438917   9.375257   9.209519   8.618127   8.883119
    23  H   10.878642  10.831010  10.683766   9.970542  10.193592
                   11         12         13         14         15
    11  C    0.000000
    12  N    2.443815   0.000000
    13  O    1.237938   3.368010   0.000000
    14  O    1.385963   3.065282   2.255640   0.000000
    15  H    7.169202   6.324189   7.114841   8.477548   0.000000
    16  H    6.611699   5.357072   6.858511   7.790526   1.741087
    17  H    1.892581   3.893857   2.243094   0.966946   9.044954
    18  H    3.290095   1.005599   4.058158   4.052976   5.622510
    19  H    2.870671   1.008762   3.983930   3.085388   7.026930
    20  O    5.147069   4.976134   4.822480   6.525895   2.537871
    21  O    7.529393   9.509041   7.387827   6.530771  14.473493
    22  H    7.089506   9.183159   6.810060   6.223759  13.876743
    23  H    8.463636  10.447499   8.277433   7.483355  15.364791
                   16         17         18         19         20
    16  H    0.000000
    17  H    8.497662   0.000000
    18  H    4.578529   4.860862   0.000000
    19  H    5.886410   4.004217   1.636118   0.000000
    20  O    3.202825   6.928681   4.582144   5.847265   0.000000
    21  O   14.100467   5.690092  10.490650   9.456703  12.144591
    22  H   13.600265   5.323145  10.143513   9.227237  11.495933
    23  H   15.027543   6.632268  11.425077  10.403273  13.007792
                   21         22         23
    21  O    0.000000
    22  H    0.962936   0.000000
    23  H    0.962955   1.548429   0.000000
 Stoichiometry    C5H12N2O4
 Framework group  C1[X(C5H12N2O4)]
 Deg. of freedom    63
 Full point group                 C1      NOp   1
 Largest Abelian subgroup         C1      NOp   1
 Largest concise Abelian subgroup C1      NOp   1
                         Standard orientation:                         
 ---------------------------------------------------------------------
 Center     Atomic      Atomic             Coordinates (Angstroms)
 Number     Number       Type             X           Y           Z
 ---------------------------------------------------------------------
      1          6           0       -3.662377   -0.714940    0.039878
      2          7           0       -5.022402   -0.380439    0.253510
      3          6           0       -2.616049    0.376164    0.287852
      4          1           0       -2.834905    1.213585   -0.362237
      5          1           0       -2.689636    0.707227    1.318180
      6          6           0       -1.197665   -0.174234    0.014165
      7          1           0       -1.128846   -0.510491   -1.009632
      8          1           0       -1.023810   -1.012258    0.671784
      9          6           0       -0.116290    0.900533    0.272376
     10          1           0       -0.188913    1.219644    1.309756
     11          6           0        1.303003    0.325010    0.030624
     12          7           0       -0.285757    2.061318   -0.627639
     13          8           0        1.371200   -0.856143   -0.333682
     14          8           0        2.482345    1.034037    0.195926
     15          1           0       -5.727056   -1.078995    0.097675
     16          1           0       -5.284192    0.541052    0.556700
     17          1           0        3.192457    0.416940   -0.027495
     18          1           0       -1.255455    2.192272   -0.859518
     19          1           0        0.056554    2.901772   -0.187116
     20          8           0       -3.347740   -1.850086   -0.332515
     21          8           0        8.744075   -0.820138    0.134732
     22          1           0        8.140955   -1.544440   -0.062445
     23          1           0        9.637186   -1.149011   -0.011821
 ---------------------------------------------------------------------
 Rotational constants (GHZ):      2.3275491      0.2074180      0.1932079
 Standard basis: 6-31G(d) (6D, 7F)
 There are   189 symmetry adapted cartesian basis functions of A   symmetry.
 There are   189 symmetry adapted basis functions of A   symmetry.
   189 basis functions,   356 primitive gaussians,   189 cartesian basis functions
    44 alpha electrons       44 beta electrons
       nuclear repulsion energy       583.9132302150 Hartrees.
 NAtoms=   23 NActive=   23 NUniq=   23 SFac= 1.00D+00 NAtFMM=   60 NAOKFM=F Big=F
 Integral buffers will be    131072 words long.
 Raffenetti 2 integral format.
 Two-electron integral symmetry is turned on.
 One-electron integrals computed using PRISM.
 NBasis=   189 RedAO= T EigKep=  2.00D-03  NBF=   189
 NBsUse=   189 1.00D-06 EigRej= -1.00D+00 NBFU=   189
 Initial guess from the checkpoint file:  "glutamine.chk"
 B after Tr=     0.000000    0.000000    0.000000
         Rot=    0.999994    0.001079    0.000509    0.003225 Ang=   0.39 deg.
 ExpMin= 1.61D-01 ExpMax= 5.48D+03 ExpMxC= 8.25D+02 IAcc=1 IRadAn=         1 AccDes= 0.00D+00
 Harris functional with IExCor=  402 and IRadAn=       1 diagonalized for initial guess.
 HarFok:  IExCor=  402 AccDes= 0.00D+00 IRadAn=         1 IDoV= 1 UseB2=F ITyADJ=14
 ICtDFT=  3500011 ScaDFX=  1.000000  1.000000  1.000000  1.000000
 FoFCou: FMM=F IPFlag=           0 FMFlag=      100000 FMFlg1=           0
         NFxFlg=           0 DoJE=T BraDBF=F KetDBF=T FulRan=T
         wScrn=  0.000000 ICntrl=     500 IOpCl=  0 I1Cent=   200000004 NGrid=           0
         NMat0=    1 NMatS0=      1 NMatT0=    0 NMatD0=    1 NMtDS0=    0 NMtDT0=    0
 Petite list used in FoFCou.
 Requested convergence on RMS density matrix=1.00D-08 within 128 cycles.
 Requested convergence on MAX density matrix=1.00D-06.
 Requested convergence on             energy=1.00D-06.
 No special actions if energy rises.
 Integral accuracy reduced to 1.0D-05 until final iterations.
 Initial convergence to 1.0D-05 achieved.  Increase integral accuracy.
 SCF Done:  E(RB3LYP) =  -608.132375437     A.U. after   13 cycles
            NFock= 13  Conv=0.69D-08     -V/T= 2.0093
 Calling FoFJK, ICntrl=      2127 FMM=F ISym2X=0 I1Cent= 0 IOpClX= 0 NMat=1 NMatS=1 NMatT=0.
 ***** Axes restored to original set *****
 -------------------------------------------------------------------
 Center     Atomic                   Forces (Hartrees/Bohr)
 Number     Number              X              Y              Z
 -------------------------------------------------------------------
      1        6           0.034933838   -0.002842235   -0.000041222
      2        7          -0.029072977    0.032460889   -0.001020725
      3        6           0.010482645    0.014220988    0.001325993
      4        1          -0.002149321   -0.008789003   -0.005355650
      5        1          -0.003865919   -0.007239719    0.005660949
      6        6          -0.014988129   -0.012858774    0.000233310
      7        1           0.004055836    0.005751437   -0.004512229
      8        1           0.004083092    0.006869955    0.003378401
      9        6          -0.019006540   -0.002286008   -0.011469555
     10        1          -0.002844399   -0.001455109    0.011238985
     11        6           0.035311109    0.047491601    0.000334552
     12        7           0.001012012    0.013466212    0.000520394
     13        8          -0.028060528   -0.015843908    0.001348163
     14        8           0.017017571   -0.041636193    0.000488516
     15        1           0.003749228    0.001046781   -0.000081132
     16        1           0.000535840   -0.004550258    0.000198651
     17        1           0.005271799    0.006858221   -0.000986852
     18        1           0.001858046   -0.006708833   -0.001913539
     19        1          -0.005680456   -0.002715741   -0.000274698
     20        8          -0.012735339   -0.021226505    0.000931500
     21        8          -0.007296896   -0.010944323    0.000406119
     22        1           0.003706975    0.005574011   -0.000199388
     23        1           0.003682513    0.005356515   -0.000210544
 -------------------------------------------------------------------
 Cartesian Forces:  Max     0.047491601 RMS     0.013539290

 GradGradGradGradGradGradGradGradGradGradGradGradGradGradGradGradGradGrad
 Berny optimization.
 Using GEDIIS/GDIIS optimizer.
 FormGI is forming the generalized inverse of G from B-inverse, IUseBI=4.
 GSVD:  received Info=                   1 from GESDD.
 Internal  Forces:  Max     0.046124674 RMS     0.009339571
 Search for a local minimum.
 Step number   2 out of a maximum of  111
 All quantities printed in internal units (Hartrees-Bohrs-Radians)
 Mixed Optimization -- RFO/linear search
 Update second derivatives using D2CorX and points    1    2
 DE= -3.88D-02 DEPred=-4.03D-02 R= 9.63D-01
 TightC=F SS=  1.41D+00  RLast= 3.13D-01 DXNew= 5.0454D-01 9.3825D-01
 Trust test= 9.63D-01 RLast= 3.13D-01 DXMaxT set to 5.05D-01
 ITU=  1  0
 Use linear search instead of GDIIS.
     Eigenvalues ---    0.00159   0.00230   0.00237   0.00237   0.00237
     Eigenvalues ---    0.00238   0.00444   0.00508   0.00766   0.00766
     Eigenvalues ---    0.00766   0.01295   0.01558   0.01558   0.03653
     Eigenvalues ---    0.04053   0.04245   0.04632   0.04848   0.04945
     Eigenvalues ---    0.05293   0.06448   0.07974   0.08915   0.11959
     Eigenvalues ---    0.12485   0.15666   0.16000   0.16000   0.16000
     Eigenvalues ---    0.16000   0.16000   0.16000   0.16142   0.17554
     Eigenvalues ---    0.17861   0.20051   0.21976   0.22084   0.25000
     Eigenvalues ---    0.25000   0.27053   0.28502   0.28519   0.28519
     Eigenvalues ---    0.32325   0.35415   0.36801   0.37172   0.37230
     Eigenvalues ---    0.37230   0.37230   0.38802   0.42542   0.47588
     Eigenvalues ---    0.47688   0.47688   0.47881   0.55366   0.55473
     Eigenvalues ---    0.55488   0.77949   0.80885
 RFO step:  Lambda=-2.00409603D-02 EMin= 1.58521059D-03
 Quartic linear search produced a step of  0.99891.
 Iteration  1 RMS(Cart)=  0.15810246 RMS(Int)=  0.00771308
 Iteration  2 RMS(Cart)=  0.05957383 RMS(Int)=  0.00067970
 Iteration  3 RMS(Cart)=  0.00123226 RMS(Int)=  0.00049410
 Iteration  4 RMS(Cart)=  0.00000029 RMS(Int)=  0.00049410
 Variable       Old X    -DE/DX   Delta X   Delta X   Delta X     New X
                                 (Linear)    (Quad)   (Total)
    R1        2.67728  -0.03682  -0.10051  -0.05547  -0.15598   2.52130
    R2        2.89492  -0.00277  -0.01524   0.00349  -0.01175   2.88317
    R3        2.33458  -0.02474  -0.04340  -0.00405  -0.04746   2.28712
    R4        1.89802   0.00368   0.00829   0.00363   0.01192   1.90994
    R5        1.89878   0.00349   0.00904   0.00190   0.01094   1.90972
    R6        2.04561   0.00941   0.02358   0.01534   0.03892   2.08453
    R7        2.04980   0.00922   0.02776   0.00871   0.03647   2.08627
    R8        2.92124  -0.00230   0.01105  -0.03042  -0.01938   2.90186
    R9        2.04052   0.00769   0.01850   0.01358   0.03207   2.07260
   R10        2.03965   0.00745   0.01763   0.01355   0.03117   2.07083
   R11        2.92216  -0.00514   0.01197  -0.05009  -0.03812   2.88403
   R12        2.05561   0.01097   0.03356   0.00963   0.04320   2.09880
   R13        2.93003  -0.01192   0.01983  -0.10498  -0.08515   2.84488
   R14        2.79409   0.00067   0.01618  -0.01856  -0.00238   2.79171
   R15        2.33936  -0.03117  -0.03863  -0.02562  -0.06424   2.27512
   R16        2.61909  -0.03171  -0.08313  -0.03387  -0.11700   2.50209
   R17        1.90031   0.00674   0.01057   0.01279   0.02336   1.92366
   R18        1.90628   0.00607   0.01654   0.00221   0.01875   1.92503
   R19        1.82726   0.00700   0.01311   0.00690   0.02001   1.84728
   R20       10.05929  -0.00004  -0.00027  -0.00281  -0.00308  10.05621
   R21        1.81968   0.00384   0.00554   0.00594   0.01148   1.83116
   R22        1.81972   0.00383   0.00558   0.00588   0.01146   1.83118
    A1        2.05228  -0.01333  -0.04009  -0.04011  -0.08020   1.97207
    A2        2.10236   0.00510   0.00400   0.03161   0.03561   2.13796
    A3        2.12855   0.00822   0.03610   0.00850   0.04460   2.17315
    A4        2.07816  -0.00350  -0.01622  -0.01330  -0.02952   2.04864
    A5        2.10847   0.00457   0.01406   0.02840   0.04246   2.15093
    A6        2.09656  -0.00107   0.00216  -0.01510  -0.01294   2.08362
    A7        1.89198  -0.00247  -0.01863   0.00241  -0.01725   1.87473
    A8        1.90160  -0.00139  -0.00902  -0.00174  -0.01134   1.89026
    A9        1.92244   0.00304   0.01180   0.01774   0.02916   1.95161
   A10        1.89717  -0.00202  -0.01345  -0.03039  -0.04442   1.85275
   A11        1.93331   0.00223   0.02265   0.00557   0.02828   1.96158
   A12        1.91674   0.00046   0.00610   0.00561   0.01181   1.92856
   A13        1.91476   0.00045   0.00412   0.01586   0.01934   1.93410
   A14        1.89269  -0.00075  -0.01792   0.02259   0.00492   1.89761
   A15        1.94402   0.00345   0.03335  -0.00936   0.02351   1.96753
   A16        1.90248  -0.00151  -0.00815  -0.03614  -0.04435   1.85813
   A17        1.90730  -0.00049  -0.00333   0.01037   0.00600   1.91330
   A18        1.90209  -0.00126  -0.00854  -0.00429  -0.01278   1.88930
   A19        1.89279  -0.00059  -0.01783   0.02994   0.00903   1.90182
   A20        1.93490  -0.00314   0.02424  -0.08438  -0.05979   1.87511
   A21        1.94321   0.00523   0.03254   0.00841   0.03953   1.98274
   A22        1.89515  -0.00043  -0.01547  -0.01192  -0.02744   1.86771
   A23        1.92042   0.00122   0.00977   0.04141   0.04966   1.97007
   A24        1.87697  -0.00239  -0.03362   0.01614  -0.01694   1.86003
   A25        2.03809   0.03273   0.16521   0.00300   0.16819   2.20628
   A26        2.17782  -0.04612  -0.14010  -0.13688  -0.27700   1.90081
   A27        2.06728   0.01339  -0.02511   0.13391   0.10878   2.17606
   A28        1.93170   0.00170   0.02104  -0.01576   0.00516   1.93686
   A29        1.92770   0.00213   0.01705  -0.00488   0.01204   1.93974
   A30        1.89592  -0.00210  -0.01470  -0.00381  -0.01875   1.87716
   A31        1.84508  -0.01008  -0.06548  -0.00929  -0.07477   1.77031
   A32        2.73726   0.00052   0.00131   0.00366   0.00497   2.74223
   A33        1.86801  -0.00956  -0.04308  -0.03830  -0.08138   1.78663
   A34        1.87943  -0.00032  -0.00101  -0.00199  -0.00301   1.87642
    D1       -3.14151  -0.00001   0.00009  -0.00109  -0.00101   3.14067
    D2        0.00002  -0.00003   0.00002  -0.00197  -0.00196  -0.00194
    D3       -0.00034  -0.00003  -0.00034  -0.00095  -0.00128  -0.00162
    D4        3.14119  -0.00004  -0.00040  -0.00183  -0.00223   3.13896
    D5       -1.03081   0.00259   0.01884   0.02154   0.03985  -0.99096
    D6        1.03100  -0.00201  -0.01371  -0.01444  -0.02773   1.00327
    D7        3.13454  -0.00045  -0.00458   0.00228  -0.00218   3.13235
    D8        2.11121   0.00261   0.01927   0.02139   0.04013   2.15135
    D9       -2.11016  -0.00199  -0.01328  -0.01458  -0.02744  -2.13760
   D10       -0.00663  -0.00043  -0.00415   0.00213  -0.00190  -0.00852
   D11        1.03936  -0.00106  -0.00870  -0.00052  -0.00931   1.03005
   D12       -1.03674   0.00095   0.00957   0.02061   0.03036  -1.00639
   D13       -3.12977   0.00089   0.01094   0.01708   0.02840  -3.10137
   D14       -1.05365  -0.00137  -0.00731  -0.01861  -0.02647  -1.08012
   D15       -3.12975   0.00064   0.01096   0.00251   0.01320  -3.11655
   D16        1.06041   0.00058   0.01233  -0.00101   0.01124   1.07165
   D17        3.13376  -0.00057  -0.00869   0.01202   0.00323   3.13699
   D18        1.05766   0.00144   0.00958   0.03315   0.04289   1.10055
   D19       -1.03537   0.00137   0.01094   0.02962   0.04094  -0.99443
   D20        1.03633   0.00077  -0.01116   0.01056  -0.00070   1.03564
   D21        3.11540  -0.00199  -0.02648  -0.03554  -0.06204   3.05336
   D22       -1.07896  -0.00364  -0.03204  -0.06591  -0.09815  -1.17711
   D23       -3.12845   0.00324   0.01282   0.03135   0.04419  -3.08426
   D24       -1.04939   0.00049  -0.00250  -0.01475  -0.01716  -1.06654
   D25        1.03944  -0.00116  -0.00806  -0.04511  -0.05326   0.98618
   D26       -1.05113   0.00038  -0.00424  -0.00887  -0.01300  -1.06413
   D27        1.02794  -0.00237  -0.01955  -0.05497  -0.07434   0.95360
   D28        3.11676  -0.00402  -0.02512  -0.08533  -0.11045   3.00631
   D29        0.01341   0.00187   0.01348   0.00257   0.01595   0.02936
   D30       -3.12552   0.00182   0.01614  -0.01143   0.00458  -3.12094
   D31        2.09105  -0.00099  -0.00326  -0.01848  -0.02151   2.06955
   D32       -1.04788  -0.00104  -0.00060  -0.03248  -0.03288  -1.08075
   D33       -2.11463  -0.00111  -0.02013   0.03325   0.01304  -2.10159
   D34        1.02963  -0.00116  -0.01747   0.01925   0.00167   1.03129
   D35        0.53241   0.00260  -0.00630   0.09187   0.08665   0.61907
   D36        2.63272   0.00248  -0.00039   0.07361   0.07443   2.70715
   D37       -1.56666  -0.00087  -0.01098   0.02129   0.00925  -1.55741
   D38        0.53365  -0.00099  -0.00507   0.00303  -0.00298   0.53067
   D39        2.65528   0.00036   0.02214   0.00329   0.02522   2.68050
   D40       -1.52759   0.00024   0.02805  -0.01497   0.01299  -1.51460
   D41       -3.14062   0.00071   0.00285   0.03447   0.03727  -3.10335
   D42        0.00368   0.00064   0.00555   0.02045   0.02604   0.02972
   D43       -2.76913   0.00014   0.00062   0.00579   0.00641  -2.76272
   D44       -0.39018   0.00005   0.00026   0.00305   0.00332  -0.38687
   D45       -2.98672   0.00002   0.00014   0.00077   0.00092  -2.98580
         Item               Value     Threshold  Converged?
 Maximum Force            0.046125     0.000450     NO 
 RMS     Force            0.009340     0.000300     NO 
 Maximum Displacement     0.648453     0.001800     NO 
 RMS     Displacement     0.208621     0.001200     NO 
 Predicted change in Energy=-2.037077D-02
 GradGradGradGradGradGradGradGradGradGradGradGradGradGradGradGradGradGrad

                          Input orientation:                          
 ---------------------------------------------------------------------
 Center     Atomic      Atomic             Coordinates (Angstroms)
 Number     Number       Type             X           Y           Z
 ---------------------------------------------------------------------
      1          6           0       -1.099613   -0.746692   -0.178508
      2          7           0       -0.700697   -2.015506   -0.073101
      3          6           0       -2.617686   -0.595624   -0.158057
      4          1           0       -3.022001   -1.213449   -0.977584
      5          1           0       -2.997792   -1.040350    0.778199
      6          6           0       -3.046444    0.874816   -0.267739
      7          1           0       -2.667488    1.323235   -1.194141
      8          1           0       -2.592928    1.435962    0.557058
      9          6           0       -4.560101    1.054890   -0.192933
     10          1           0       -4.924292    0.650641    0.775295
     11          6           0       -4.838530    2.534345   -0.185194
     12          7           0       -5.280364    0.496656   -1.355704
     13          8           0       -4.021549    3.415652   -0.258127
     14          8           0       -6.145739    2.724469   -0.094829
     15          1           0        0.294449   -2.191973   -0.080356
     16          1           0       -1.341393   -2.792281    0.012931
     17          1           0       -6.202966    3.699488   -0.135329
     18          1           0       -4.829813   -0.352779   -1.689926
     19          1           0       -6.241160    0.259996   -1.113681
     20          8           0       -0.320175    0.173818   -0.278247
     21          8           0       -9.303733    8.401714    0.661513
     22          1           0       -8.345803    8.518601    0.573840
     23          1           0       -9.627153    9.314887    0.638917
 ---------------------------------------------------------------------
                    Distance matrix (angstroms):
                    1          2          3          4          5
     1  C    0.000000
     2  N    1.334216   0.000000
     3  C    1.525709   2.387076   0.000000
     4  H    2.133533   2.617220   1.103088   0.000000
     5  H    2.145835   2.636719   1.104009   1.764461   0.000000
     6  C    2.535233   3.727516   1.535597   2.205749   2.182708
     7  H    2.788251   4.033880   2.181277   2.570475   3.096087
     8  H    2.745001   3.986260   2.153914   3.091700   2.518916
     9  C    3.901395   4.933223   2.549193   2.850752   2.788177
    10  H    4.182158   5.066248   2.782939   3.188436   2.563368
    11  C    4.974410   6.151046   3.837915   4.239530   4.134596
    12  N    4.517786   5.378604   3.117256   2.857908   3.482249
    13  O    5.086174   6.368655   4.251021   4.790124   4.688070
    14  O    6.125305   7.219164   4.845016   5.103351   4.984537
    15  H    2.010442   1.010696   3.321882   3.572306   3.591963
    16  H    2.068705   1.010581   2.546265   2.509637   2.529537
    17  H    6.768648   7.933473   5.594885   5.913111   5.794285
    18  H    4.044001   4.735862   2.701684   2.125174   3.149713
    19  H    5.321981   6.079264   3.843809   3.542957   3.973606
    20  O    1.210294   2.231596   2.425911   3.116641   3.124086
    21  O   12.316921  13.530349  11.239528  11.601644  11.354782
    22  H   11.786389  13.032022  10.789629  11.201008  10.955205
    23  H   13.214480  14.441827  12.164950  12.533433  12.296289
                    6          7          8          9         10
     6  C    0.000000
     7  H    1.096771   0.000000
     8  H    1.095834   1.756407   0.000000
     9  C    1.526165   2.157872   2.139503   0.000000
    10  H    2.159742   3.069890   2.469740   1.110638   0.000000
    11  C    2.443854   2.682944   2.607702   1.505447   2.116184
    12  N    2.513378   2.745260   3.429762   1.477308   2.166022
    13  O    2.721538   2.662295   2.573841   2.422290   3.086777
    14  O    3.613412   3.907707   3.835059   2.304641   2.559260
    15  H    4.538929   4.729722   4.680294   5.841356   6.003986
    16  H    4.053835   4.489212   4.443023   5.020277   5.027134
    17  H    4.237916   4.389449   4.316865   3.113876   3.429244
    18  H    2.590369   2.780373   3.640355   2.072502   2.663286
    19  H    3.361522   3.729354   4.181371   2.074992   2.335589
    20  O    2.814969   2.769458   2.730594   4.331344   4.747125
    21  O    9.832159   9.878667   9.673030   8.786805   8.903459
    22  H    9.339106   9.335005   9.124671   8.403956   8.582082
    23  H   10.740695  10.754698  10.562408   9.725972   9.859242
                   11         12         13         14         15
    11  C    0.000000
    12  N    2.391126   0.000000
    13  O    1.203944   3.363008   0.000000
    14  O    1.324050   2.702190   2.239773   0.000000
    15  H    6.978291   6.319318   7.078481   8.102323   0.000000
    16  H    6.375121   5.310910   6.767211   7.316276   1.745007
    17  H    1.794918   3.549457   2.203230   0.977536   8.770903
    18  H    3.255730   1.017959   4.111497   3.707486   5.677271
    19  H    2.828802   1.018682   3.951811   2.668481   7.056493
    20  O    5.098654   5.086119   4.920372   6.362127   2.452324
    21  O    7.421655   9.096515   7.321749   6.540343  14.314386
    22  H    6.977709   8.801798   6.740284   6.233728  13.776731
    23  H    8.341811  10.031663   8.187090   7.489474  15.210632
                   16         17         18         19         20
    16  H    0.000000
    17  H    8.111716   0.000000
    18  H    4.584754   4.552273   0.000000
    19  H    5.881613   3.576135   1.643001   0.000000
    20  O    3.150463   6.859883   4.754679   5.980254   0.000000
    21  O   13.752274   5.688641  10.108727   8.877963  12.218253
    22  H   13.315872   5.321515   9.807559   8.688027  11.609141
    23  H   14.684317   6.622477  11.040912   9.824845  13.077467
                   21         22         23
    21  O    0.000000
    22  H    0.969009   0.000000
    23  H    0.969018   1.510021   0.000000
 Stoichiometry    C5H12N2O4
 Framework group  C1[X(C5H12N2O4)]
 Deg. of freedom    63
 Full point group                 C1      NOp   1
 Largest Abelian subgroup         C1      NOp   1
 Largest concise Abelian subgroup C1      NOp   1
                         Standard orientation:                         
[...]
 Swapping is turned off.
 Update second derivatives using D2CorX and points   12   13
 DE= -1.49D-04 DEPred=-3.37D-04 R= 4.43D-01
 Trust test= 4.43D-01 RLast= 1.01D+00 DXMaxT set to 1.09D+00
 ITU=  0  1  0 -1  1  1  0  0 -1  1  1  1  0
     Eigenvalues ---    0.00082   0.00162   0.00230   0.00233   0.00246
     Eigenvalues ---    0.00315   0.00385   0.00755   0.00807   0.01521
     Eigenvalues ---    0.01551   0.01557   0.03424   0.03673   0.04216
     Eigenvalues ---    0.04481   0.04588   0.04683   0.04902   0.05167
     Eigenvalues ---    0.05653   0.06647   0.08263   0.09187   0.12139
     Eigenvalues ---    0.12680   0.15413   0.15604   0.15947   0.15991
     Eigenvalues ---    0.16000   0.16019   0.16173   0.16460   0.18121
     Eigenvalues ---    0.19741   0.21458   0.22757   0.23605   0.24741
     Eigenvalues ---    0.25793   0.27012   0.28631   0.28799   0.30680
     Eigenvalues ---    0.35392   0.36476   0.37131   0.37244   0.37259
     Eigenvalues ---    0.37396   0.38198   0.39508   0.46530   0.47644
     Eigenvalues ---    0.47713   0.47903   0.47994   0.55420   0.55473
     Eigenvalues ---    0.55659   0.79804   0.83961
 En-DIIS/RFO-DIIS IScMMF=        0 using points:    13   12   11
 RFO step:  Lambda=-7.17353491D-05.
 DidBck=T Rises=F RFO-DIIS coefs:    0.55108    0.51174   -0.06282
 Iteration  1 RMS(Cart)=  0.07787568 RMS(Int)=  0.00287021
 Iteration  2 RMS(Cart)=  0.00362056 RMS(Int)=  0.00001929
 Iteration  3 RMS(Cart)=  0.00000904 RMS(Int)=  0.00001802
 Iteration  4 RMS(Cart)=  0.00000000 RMS(Int)=  0.00001802
 Variable       Old X    -DE/DX   Delta X   Delta X   Delta X     New X
                                 (Linear)    (Quad)   (Total)
    R1        2.58576   0.00004   0.00066  -0.00103  -0.00037   2.58539
    R2        2.89583  -0.00091   0.00041  -0.00211  -0.00170   2.89413
    R3        2.30714   0.00125   0.00032   0.00014   0.00046   2.30761
    R4        1.90944  -0.00013  -0.00035   0.00015  -0.00020   1.90924
    R5        1.90455   0.00008   0.00052  -0.00036   0.00016   1.90472
    R6        2.07370  -0.00045   0.00086  -0.00086   0.00000   2.07369
    R7        2.08338  -0.00078  -0.00089  -0.00057  -0.00146   2.08192
    R8        2.88863   0.00142   0.00200   0.00070   0.00270   2.89133
    R9        2.06889   0.00063  -0.00043   0.00095   0.00052   2.06942
   R10        2.06501   0.00003  -0.00006   0.00025   0.00019   2.06520
   R11        2.89516   0.00090  -0.00011   0.00075   0.00063   2.89580
   R12        2.09812  -0.00048  -0.00046  -0.00082  -0.00128   2.09684
   R13        2.88385  -0.00031   0.00071   0.00016   0.00087   2.88472
   R14        2.77784   0.00026   0.00323  -0.00229   0.00093   2.77877
   R15        2.28672  -0.00138  -0.00100   0.00020  -0.00080   2.28592
   R16        2.56790   0.00029   0.00172  -0.00179  -0.00008   2.56783
   R17        1.92361  -0.00016   0.00022  -0.00033  -0.00010   1.92350
   R18        1.92398  -0.00045   0.00017  -0.00095  -0.00077   1.92321
   R19        1.84554  -0.00068  -0.00045  -0.00021  -0.00066   1.84488
   R20        9.73787  -0.00007   0.06316  -0.05523   0.00793   9.74580
   R21        1.83165  -0.00059  -0.00056   0.00000  -0.00056   1.83109
   R22        1.83169  -0.00057  -0.00056   0.00001  -0.00054   1.83115
    A1        2.00015   0.00148  -0.00117   0.00391   0.00278   2.00293
    A2        2.12977   0.00077   0.00074   0.00098   0.00176   2.13153
    A3        2.15189  -0.00219   0.00098  -0.00482  -0.00380   2.14809
    A4        2.06385   0.00016  -0.00012   0.00035   0.00024   2.06409
    A5        2.14532  -0.00011  -0.00002  -0.00034  -0.00035   2.14497
    A6        2.07397  -0.00006   0.00006  -0.00031  -0.00024   2.07373
    A7        1.92458   0.00071  -0.01170   0.00946  -0.00226   1.92232
    A8        1.85944  -0.00011   0.00720  -0.00390   0.00332   1.86276
    A9        1.95574  -0.00059   0.00132  -0.00281  -0.00146   1.95428
   A10        1.86385   0.00005  -0.00254   0.00171  -0.00086   1.86299
   A11        1.93171  -0.00009   0.00370  -0.00099   0.00273   1.93444
   A12        1.92500   0.00007   0.00185  -0.00336  -0.00146   1.92355
   A13        1.91316   0.00007   0.00274  -0.00107   0.00169   1.91485
   A14        1.90248  -0.00013  -0.00118   0.00193   0.00074   1.90322
   A15        1.96475   0.00030   0.00353  -0.00214   0.00140   1.96616
   A16        1.86974   0.00003  -0.00310   0.00057  -0.00253   1.86721
   A17        1.89848  -0.00020   0.00031  -0.00039  -0.00005   1.89842
   A18        1.91285  -0.00008  -0.00268   0.00122  -0.00146   1.91139
   A19        1.88211  -0.00001   0.00434  -0.00205   0.00231   1.88442
   A20        1.91990   0.00074  -0.00001   0.00146   0.00148   1.92138
   A21        1.94922  -0.00059   0.00064  -0.00359  -0.00287   1.94634
   A22        1.81623  -0.00020   0.00394   0.00051   0.00443   1.82067
   A23        1.95791   0.00061   0.00455   0.00001   0.00458   1.96249
   A24        1.93340  -0.00050  -0.01306   0.00387  -0.00919   1.92421
   A25        2.19251   0.00022   0.00537  -0.00295   0.00243   2.19494
   A26        1.95712  -0.00028  -0.00434   0.00200  -0.00233   1.95479
   A27        2.13205   0.00009  -0.00063   0.00118   0.00055   2.13260
   A28        1.90370   0.00034   0.00193   0.00114   0.00306   1.90676
   A29        1.91044   0.00008  -0.00208   0.00434   0.00225   1.91269
   A30        1.85437   0.00011   0.00057   0.00352   0.00407   1.85844
   A31        1.84447   0.00065   0.00019   0.00175   0.00195   1.84642
   A32        2.78776   0.00050  -0.00743   0.00425  -0.00318   2.78459
   A33        1.80974  -0.00020  -0.00112   0.00039  -0.00073   1.80901
   A34        1.82861  -0.00063   0.00794  -0.00480   0.00313   1.83174
    D1       -3.07019  -0.00096  -0.01378  -0.03069  -0.04449  -3.11468
    D2        0.08162  -0.00044  -0.02808   0.00416  -0.02393   0.05768
    D3        0.01678   0.00004   0.00230  -0.02942  -0.02710  -0.01032
    D4       -3.11460   0.00056  -0.01199   0.00543  -0.00654  -3.12114
    D5       -0.39985   0.00045  -0.12937   0.06812  -0.06129  -0.46114
    D6        1.61643   0.00080  -0.13440   0.07277  -0.06162   1.55481
    D7       -2.55997   0.00048  -0.12657   0.06447  -0.06212  -2.62209
    D8        2.79714  -0.00066  -0.14568   0.06663  -0.07906   2.71807
    D9       -1.46976  -0.00031  -0.15071   0.07127  -0.07940  -1.54916
   D10        0.63702  -0.00064  -0.14288   0.06298  -0.07989   0.55713
   D11        1.23838   0.00019  -0.01287  -0.02732  -0.04017   1.19821
   D12       -0.80302   0.00018  -0.01001  -0.02851  -0.03852  -0.84153
   D13       -2.92929   0.00018  -0.00811  -0.03000  -0.03811  -2.96740
   D14       -0.91774  -0.00023  -0.00136  -0.03684  -0.03819  -0.95593
   D15       -2.95914  -0.00024   0.00150  -0.03803  -0.03653  -2.99567
   D16        1.19777  -0.00024   0.00340  -0.03952  -0.03613   1.16164
   D17       -2.97645  -0.00028  -0.00167  -0.03624  -0.03791  -3.01436
   D18        1.26534  -0.00028   0.00119  -0.03744  -0.03625   1.22908
   D19       -0.86094  -0.00029   0.00308  -0.03892  -0.03585  -0.89679
   D20        1.17350  -0.00016  -0.04691  -0.00496  -0.05187   1.12163
   D21       -3.13960  -0.00003  -0.03993  -0.00472  -0.04466   3.09893
   D22       -0.98531  -0.00055  -0.05616  -0.00121  -0.05736  -1.04267
   D23       -2.98581  -0.00003  -0.04085  -0.00800  -0.04885  -3.03466
   D24       -1.01573   0.00011  -0.03387  -0.00776  -0.04164  -1.05736
   D25        1.13856  -0.00041  -0.05010  -0.00425  -0.05433   1.08423
   D26       -0.94689  -0.00014  -0.04588  -0.00685  -0.05273  -0.99961
   D27        1.02320  -0.00001  -0.03890  -0.00661  -0.04552   0.97768
   D28       -3.10570  -0.00053  -0.05513  -0.00310  -0.05821   3.11928
   D29       -0.38585   0.00004   0.06919  -0.00306   0.06610  -0.31975
   D30        2.81384  -0.00043   0.05968  -0.00771   0.05195   2.86579
   D31        1.62636   0.00025   0.07629  -0.00451   0.07177   1.69813
   D32       -1.45713  -0.00021   0.06677  -0.00916   0.05762  -1.39951
   D33       -2.54935   0.00061   0.07723  -0.00220   0.07505  -2.47431
   D34        0.65033   0.00014   0.06772  -0.00685   0.06090   0.71123
   D35        1.39299  -0.00048  -0.04814  -0.03240  -0.08055   1.31244
   D36       -2.86808  -0.00012  -0.04754  -0.02514  -0.07267  -2.94075
   D37       -0.72239  -0.00049  -0.05756  -0.02717  -0.08473  -0.80712
   D38        1.29973  -0.00012  -0.05696  -0.01991  -0.07685   1.22288
   D39       -2.74357  -0.00030  -0.05691  -0.03027  -0.08720  -2.83077
   D40       -0.72145   0.00007  -0.05630  -0.02301  -0.07932  -0.80078
   D41        3.10452   0.00030   0.00775  -0.00118   0.00659   3.11111
   D42        0.01870  -0.00016  -0.00154  -0.00548  -0.00705   0.01165
   D43       -2.66986   0.00007  -0.01441   0.00762  -0.00679  -2.67665
   D44       -0.37970  -0.00004   0.00715  -0.01454  -0.00739  -0.38709
   D45       -2.99030  -0.00003   0.00185  -0.00214  -0.00028  -2.99059
         Item               Value     Threshold  Converged?
 Maximum Force            0.002193     0.000450     NO 
 RMS     Force            0.000526     0.000300     NO 
 Maximum Displacement     0.375191     0.001800     NO 
 RMS     Displacement     0.078392     0.001200     NO 
 Predicted change in Energy=-2.044857D-04
 GradGradGradGradGradGradGradGradGradGradGradGradGradGradGradGradGradGrad

                          Input orientation:                          
 ---------------------------------------------------------------------
 Center     Atomic      Atomic             Coordinates (Angstroms)
 Number     Number       Type             X           Y           Z
 ---------------------------------------------------------------------
      1          6           0       -1.105090   -0.835890   -0.031999
      2          7           0       -0.654038   -2.005220   -0.580634
      3          6           0       -2.619981   -0.628662   -0.119623
      4          1           0       -3.027592   -1.178582   -0.977307
      5          1           0       -3.055061   -1.083303    0.784677
      6          6           0       -2.991475    0.853551   -0.197155
      7          1           0       -2.667352    1.265794   -1.158517
      8          1           0       -2.451656    1.397735    0.581812
      9          6           0       -4.496740    1.093723   -0.039951
     10          1           0       -4.789727    0.773202    0.981142
     11          6           0       -4.794289    2.590751   -0.065606
     12          7           0       -5.265172    0.404086   -1.086934
     13          8           0       -3.989956    3.474682    0.121438
     14          8           0       -6.112748    2.844193   -0.275043
     15          1           0        0.334685   -2.206968   -0.530798
     16          1           0       -1.259867   -2.657953   -1.052690
     17          1           0       -6.204390    3.815724   -0.246274
     18          1           0       -5.295278   -0.592074   -0.879985
     19          1           0       -6.228906    0.730896   -1.074098
     20          8           0       -0.355009   -0.045080    0.518606
     21          8           0       -9.326110    8.290379    0.342805
     22          1           0       -8.373076    8.447032    0.420845
     23          1           0       -9.704143    9.182502    0.329584
 ---------------------------------------------------------------------
                    Distance matrix (angstroms):
                    1          2          3          4          5
     1  C    0.000000
     2  N    1.368131   0.000000
     3  C    1.531508   2.443844   0.000000
     4  H    2.169575   2.544492   1.097351   0.000000
     5  H    2.128511   2.911858   1.101704   1.764772   0.000000
     6  C    2.537702   3.712578   1.530024   2.177040   2.172427
     7  H    2.850751   3.884188   2.161136   2.477415   3.073204
     8  H    2.679381   4.020300   2.150960   3.065936   2.561407
     9  C    3.902147   4.966099   2.548564   2.863634   2.738228
    10  H    4.146345   5.221369   2.807972   3.278735   2.548387
    11  C    5.035195   6.207244   3.885248   4.261489   4.152899
    12  N    4.467293   5.227203   2.999882   2.742922   3.255740
    13  O    5.189126   6.453726   4.332710   4.877115   4.699909
    14  O    6.219222   7.308058   4.927910   5.118015   5.088977
    15  H    2.049783   1.010326   3.374932   3.544270   3.805716
    16  H    2.094202   1.007932   2.615062   2.306312   3.012999
    17  H    6.905526   8.049944   5.711094   5.964021   5.914525
    18  H    4.282079   4.860833   2.781492   2.344326   2.833898
    19  H    5.458413   6.229686   3.972878   3.728791   4.101177
    20  O    1.221133   2.267133   2.424459   3.265773   2.904992
    21  O   12.288793  13.492848  11.168496  11.448810  11.286595
    22  H   11.798361  13.032117  10.759109  11.098715  10.919750
    23  H   13.207673  14.418669  12.109751  12.395013  12.239450
                    6          7          8          9         10
     6  C    0.000000
     7  H    1.095087   0.000000
     8  H    1.092855   1.758601   0.000000
     9  C    1.532390   2.151152   2.159023   0.000000
    10  H    2.151407   3.053729   2.452771   1.109597   0.000000
    11  C    2.507052   2.733829   2.707465   1.526528   2.097424
    12  N    2.482624   2.737943   3.418761   1.470463   2.153887
    13  O    2.822906   2.875196   2.625266   2.439640   2.945628
    14  O    3.702846   3.891352   4.028652   2.393929   2.759962
    15  H    4.532265   4.633178   4.689934   5.871810   6.117759
    16  H    4.007626   4.169893   4.532170   5.057476   5.326276
    17  H    4.370322   4.454769   4.540420   3.219927   3.572781
    18  H    2.804210   3.230363   3.765949   2.045784   2.362911
    19  H    3.356342   3.602486   4.177838   2.049757   2.509389
    20  O    2.875900   3.142938   2.545906   4.331603   4.533238
    21  O    9.783946   9.794785   9.737751   8.675321   8.803080
    22  H    9.327621   9.306978   9.207699   8.325231   8.487756
    23  H   10.710219  10.696033  10.642592   9.627146   9.761779
                   11         12         13         14         15
    11  C    0.000000
    12  N    2.458932   0.000000
    13  O    1.209657   3.537641   0.000000
    14  O    1.358835   2.707707   2.249657   0.000000
    15  H    7.038529   6.203651   7.170013   8.194451   0.000000
    16  H    6.404325   5.041798   6.814777   7.377588   1.737341
    17  H    1.876589   3.637048   2.270515   0.976267   8.894564
    18  H    3.323339   1.017874   4.386937   3.583593   5.867392
    19  H    2.556217   1.017719   3.737722   2.262301   7.211584
    20  O    5.195778   5.185480   5.075363   6.490711   2.500137
    21  O    7.293145   8.984932   7.191278   6.353612  14.292951
    22  H    6.880434   8.753368   6.635183   6.081542  13.792695
    23  H    8.228853   9.938389   8.079261   7.310119  15.206523
                   16         17         18         19         20
    16  H    0.000000
    17  H    8.185787   0.000000
    18  H    4.536764   4.544970   0.000000
    19  H    6.014657   3.194066   1.630825   0.000000
    20  O    3.180384   7.050256   5.163478   6.135267   0.000000
    21  O   13.670321   5.487686   9.830605   8.291326  12.247099
    22  H   13.269881   5.157253   9.636931   8.146845  11.679680
    23  H   14.608657   6.432899  10.790898   9.245390  13.137362
                   21         22         23
    21  O    0.000000
    22  H    0.968971   0.000000
    23  H    0.969002   1.523477   0.000000
 Stoichiometry    C5H12N2O4
 Framework group  C1[X(C5H12N2O4)]
 Deg. of freedom    63
 Full point group                 C1      NOp   1
 Largest Abelian subgroup         C1      NOp   1
 Largest concise Abelian subgroup C1      NOp   1
                         Standard orientation:                         
 ---------------------------------------------------------------------
 Center     Atomic      Atomic             Coordinates (Angstroms)
 Number     Number       Type             X           Y           Z
 ---------------------------------------------------------------------
      1          6           0       -3.720465   -0.544804    0.037641
      2          7           0       -4.910535    0.047595   -0.285746
      3          6           0       -2.559753    0.428598    0.262922
      4          1           0       -2.726681    1.353312   -0.303840
      5          1           0       -2.578210    0.702596    1.329851
      6          6           0       -1.210630   -0.195635   -0.099256
      7          1           0       -1.151751   -0.345271   -1.182472
      8          1           0       -1.138700   -1.182945    0.363751
      9          6           0       -0.023563    0.665701    0.344808
     10          1           0       -0.032847    0.716062    1.453223
     11          6           0        1.289076   -0.037932    0.009892
     12          7           0       -0.060546    1.997262   -0.277959
     13          8           0        1.417999   -1.216247   -0.231399
     14          8           0        2.349255    0.810410    0.062511
     15          1           0       -5.717882   -0.544170   -0.422721
     16          1           0       -5.009043    1.041982   -0.417728
     17          1           0        3.135052    0.266299   -0.136398
     18          1           0       -0.775660    2.560815    0.177110
     19          1           0        0.825427    2.472524   -0.120067
     20          8           0       -3.612558   -1.753522    0.173742
     21          8           0        8.568190   -0.490047    0.017369
     22          1           0        8.052570   -1.287311   -0.176049
     23          1           0        9.484221   -0.768212   -0.132550
 ---------------------------------------------------------------------
 Rotational constants (GHZ):      2.6997888      0.2125319      0.1988859
 Standard basis: 6-31G(d) (6D, 7F)
 There are   189 symmetry adapted cartesian basis functions of A   symmetry.
 There are   189 symmetry adapted basis functions of A   symmetry.
   189 basis functions,   356 primitive gaussians,   189 cartesian basis functions
    44 alpha electrons       44 beta electrons
       nuclear repulsion energy       589.2300358854 Hartrees.
 NAtoms=   23 NActive=   23 NUniq=   23 SFac= 1.00D+00 NAtFMM=   60 NAOKFM=F Big=F
 Integral buffers will be    131072 words long.
 Raffenetti 2 integral format.
 Two-electron integral symmetry is turned on.
 One-electron integrals computed using PRISM.
 NBasis=   189 RedAO= T EigKep=  2.21D-03  NBF=   189
 NBsUse=   189 1.00D-06 EigRej= -1.00D+00 NBFU=   189
 Initial guess from the checkpoint file:  "glutamine.chk"
 B after Tr=     0.000000    0.000000    0.000000
         Rot=    1.000000   -0.000299   -0.000204   -0.000541 Ang=  -0.07 deg.
 ExpMin= 1.61D-01 ExpMax= 5.48D+03 ExpMxC= 8.25D+02 IAcc=1 IRadAn=         1 AccDes= 0.00D+00
 Harris functional with IExCor=  402 and IRadAn=       1 diagonalized for initial guess.
 HarFok:  IExCor=  402 AccDes= 0.00D+00 IRadAn=         1 IDoV= 1 UseB2=F ITyADJ=14
 ICtDFT=  3500011 ScaDFX=  1.000000  1.000000  1.000000  1.000000
 FoFCou: FMM=F IPFlag=           0 FMFlag=      100000 FMFlg1=           0
         NFxFlg=           0 DoJE=T BraDBF=F KetDBF=T FulRan=T
         wScrn=  0.000000 ICntrl=     500 IOpCl=  0 I1Cent=   200000004 NGrid=           0
         NMat0=    1 NMatS0=      1 NMatT0=    0 NMatD0=    1 NMtDS0=    0 NMtDT0=    0
 Petite list used in FoFCou.
 Requested convergence on RMS density matrix=1.00D-08 within 128 cycles.
 Requested convergence on MAX density matrix=1.00D-06.
 Requested convergence on             energy=1.00D-06.
 No special actions if energy rises.
 Integral accuracy reduced to 1.0D-05 until final iterations.
 Initial convergence to 1.0D-05 achieved.  Increase integral accuracy.
 SCF Done:  E(RB3LYP) =  -608.153150353     A.U. after   12 cycles
            NFock= 12  Conv=0.85D-08     -V/T= 2.0089
