 Entering Gaussian System, Link 0=/share/apps/gaussian/g09/g09
 Input=glutamine_dft.com
 Output=glutamine_dft.log
 Initial command:
 /share/apps/gaussian/g09/l1.exe "/mnt/scratch/kkesgin/CompChem/Gau-14816.inp" -scrdir="/mnt/scratch/kkesgin/CompChem/"
 Entering Link 1 = /share/apps/gaussian/g09/l1.exe PID=     14817.
  
 Copyright (c) 1988,1990,1992,1993,1995,1998,2003,2009,2013,
            Gaussian, Inc.  All Rights Reserved.
  
 This is part of the Gaussian(R) 09 program.  It is based on
 the Gaussian(R) 03 system (copyright 2003, Gaussian, Inc.),
 the Gaussian(R) 98 system (copyright 1998, Gaussian, Inc.),
 the Gaussian(R) 94 system (copyright 1995, Gaussian, Inc.),
 the Gaussian 92(TM) system (copyright 1992, Gaussian, Inc.),
 the Gaussian 90(TM) system (copyright 1990, Gaussian, Inc.),
 the Gaussian 88(TM) system (copyright 1988, Gaussian, Inc.),
 the Gaussian 86(TM) system (copyright 1986, Carnegie Mellon
 University), and the Gaussian 82(TM) system (copyright 1983,
 Carnegie Mellon University). Gaussian is a federally registered
 trademark of Gaussian, Inc.
  
 This software contains proprietary and confidential information,
 including trade secrets, belonging to Gaussian, Inc.
  
 This software is provided under written license and may be
 used, copied, transmitted, or stored only in accord with that
 written license.
  
 The following legend is applicable only to US Government
 contracts under FAR:
  
                    RESTRICTED RIGHTS LEGEND
  
 Use, reproduction and disclosure by the US Government is
 subject to restrictions as set forth in subparagraphs (a)
 and (c) of the Commercial Computer Software - Restricted
 Rights clause in FAR 52.227-19.
  
 Gaussian, Inc.
 340 Quinnipiac St., Bldg. 40, Wallingford CT 06492
  
  
 ---------------------------------------------------------------
 Warning -- This program may not be used in any manner that
 competes with the business of Gaussian, Inc. or will provide
 assistance to any competitor of Gaussian, Inc.  The licensee
 of this program is prohibited from giving any competitor of
 Gaussian, Inc. access to this program.  By using this program,
 the user acknowledges that Gaussian, Inc. is engaged in the
 business of creating and licensing software in the field of
 computational chemistry and represents and warrants to the
 licensee that it is not a competitor of Gaussian, Inc. and that
 it will not use this program in any manner prohibited above.
 ---------------------------------------------------------------
  

 Cite this work as:
 Gaussian 09, Revision D.01,
 M. J. Frisch, G. W. Trucks, H. B. Schlegel, G. E. Scuseria, 
 M. A. Robb, J. R. Cheeseman, G. Scalmani, V. Barone, B. Mennucci, 
 G. A. Petersson, H. Nakatsuji, M. Caricato, X. Li, H. P. Hratchian, 
 A. F. Izmaylov, J. Bloino, G. Zheng, J. L. Sonnenberg, M. Hada, 
 M. Ehara, K. Toyota, R. Fukuda, J. Hasegawa, M. Ishida, T. Nakajima, 
 Y. Honda, O. Kitao, H. Nakai, T. Vreven, J. A. Montgomery, Jr., 
 J. E. Peralta, F. Ogliaro, M. Bearpark, J. J. Heyd, E. Brothers, 
 K. N. Kudin, V. N. Staroverov, T. Keith, R. Kobayashi, J. Normand, 
 K. Raghavachari, A. Rendell, J. C. Burant, S. S. Iyengar, J. Tomasi, 
 M. Cossi, N. Rega, J. M. Millam, M. Klene, J. E. Knox, J. B. Cross, 
 V. Bakken, C. Adamo, J. Jaramillo, R. Gomperts, R. E. Stratmann, 
 O. Yazyev, A. J. Austin, R. Cammi, C. Pomelli, J. W. Ochterski, 
 R. L. Martin, K. Morokuma, V. G. Zakrzewski, G. A. Voth, 
 P. Salvador, J. J. Dannenberg, S. Dapprich, A. D. Daniels, 
 O. Farkas, J. B. Foresman, J. V. Ortiz, J. Cioslowski, 
 and D. J. Fox, Gaussian, Inc., Wallingford CT, 2013.
 
 ******************************************
 Gaussian 09:  EM64L-G09RevD.01 24-Apr-2013
                10-Jan-2017 
 ******************************************
 %chk=glutamine.chk
 -------------------------
 # opt freq b3lyp 6-31g(d)
 -------------------------
 1/14=-1,18=20,19=15,26=3,38=1/1,3;
 2/9=110,12=2,17=6,18=5,40=1/2;
 3/5=1,6=6,7=1,11=2,16=1,25=1,30=1,71=1,74=-5/1,2,3;
 4//1;
 5/5=2,38=5/2;
 6/7=2,8=2,9=2,10=2,28=1/1;
 7//1,2,3,16;
 1/14=-1,18=20,19=15,26=3/3(2);
 2/9=110/2;
 99//99;
 2/9=110/2;
 3/5=1,6=6,7=1,11=2,16=1,25=1,30=1,71=1,74=-5/1,2,3;
 4/5=5,16=3,69=1/1;
 5/5=2,38=5/2;
 7//1,2,3,16;
 1/14=-1,18=20,19=15,26=3/3(-5);
 2/9=110/2;
 6/7=2,8=2,9=2,10=2,19=2,28=1/1;
 99/9=1/99;
 -------------------
 Title Card Required
 -------------------
 Symbolic Z-matrix:
 Charge =  0 Multiplicity = 1
 C                    -1.12146  -0.61118  -0.16928 
 N                    -0.38899  -1.88569  -0.16928 
 O                    -0.49442   0.47987  -0.16928 
 C                    -2.66146  -0.61118  -0.16928 
 H                    -3.01813  -1.11342  -1.04418 
 H                    -3.01813  -1.11774   0.70312 
 C                    -3.1748    0.84074  -0.16569 
 H                    -2.81885   1.34705  -1.03853 
 H                    -2.81741   1.34324   0.70876 
 C                    -4.7148    0.84074  -0.16443 
 H                    -5.07075   0.3347    0.70857 
 C                    -5.22813   2.29266  -0.16129 
 N                    -5.20578   0.15002  -1.36557 
 O                    -4.22008   3.04592  -0.16061 
 O                    -6.54107   2.85931  -0.15924 
 H                     0.61101  -1.88767  -0.16928 
 H                    -0.8907   -2.75073  -0.16928 
 H                    -6.47622   3.81711  -0.15577 
 H                    -4.55412  -0.5604   -1.63137 
 H                    -6.09317  -0.26774  -1.17055 
 

 GradGradGradGradGradGradGradGradGradGradGradGradGradGradGradGradGradGrad
 Berny optimization.
 Initialization pass.
                           ----------------------------
                           !    Initial Parameters    !
                           ! (Angstroms and Degrees)  !
 --------------------------                            --------------------------
 ! Name  Definition              Value          Derivative Info.                !
 --------------------------------------------------------------------------------
 ! R1    R(1,2)                  1.47           estimate D2E/DX2                !
 ! R2    R(1,3)                  1.2584         estimate D2E/DX2                !
 ! R3    R(1,4)                  1.54           estimate D2E/DX2                !
 ! R4    R(2,16)                 1.0            estimate D2E/DX2                !
 ! R5    R(2,17)                 1.0            estimate D2E/DX2                !
 ! R6    R(4,5)                  1.07           estimate D2E/DX2                !
 ! R7    R(4,6)                  1.07           estimate D2E/DX2                !
 ! R8    R(4,7)                  1.54           estimate D2E/DX2                !
 ! R9    R(7,8)                  1.07           estimate D2E/DX2                !
 ! R10   R(7,9)                  1.07           estimate D2E/DX2                !
 ! R11   R(7,10)                 1.54           estimate D2E/DX2                !
 ! R12   R(10,11)                1.07           estimate D2E/DX2                !
 ! R13   R(10,12)                1.54           estimate D2E/DX2                !
 ! R14   R(10,13)                1.47           estimate D2E/DX2                !
 ! R15   R(12,14)                1.2584         estimate D2E/DX2                !
 ! R16   R(12,15)                1.43           estimate D2E/DX2                !
 ! R17   R(13,19)                1.0            estimate D2E/DX2                !
 ! R18   R(13,20)                1.0            estimate D2E/DX2                !
 ! R19   R(15,18)                0.96           estimate D2E/DX2                !
 ! A1    A(2,1,3)              120.2269         estimate D2E/DX2                !
 ! A2    A(2,1,4)              119.8865         estimate D2E/DX2                !
 ! A3    A(3,1,4)              119.8865         estimate D2E/DX2                !
 ! A4    A(1,2,16)             120.0            estimate D2E/DX2                !
 ! A5    A(1,2,17)             120.0            estimate D2E/DX2                !
 ! A6    A(16,2,17)            120.0            estimate D2E/DX2                !
 ! A7    A(1,4,5)              109.4712         estimate D2E/DX2                !
 ! A8    A(1,4,6)              109.4712         estimate D2E/DX2                !
 ! A9    A(1,4,7)              109.4712         estimate D2E/DX2                !
 ! A10   A(5,4,6)              109.4713         estimate D2E/DX2                !
 ! A11   A(5,4,7)              109.4712         estimate D2E/DX2                !
 ! A12   A(6,4,7)              109.4712         estimate D2E/DX2                !
 ! A13   A(4,7,8)              109.4712         estimate D2E/DX2                !
 ! A14   A(4,7,9)              109.4712         estimate D2E/DX2                !
 ! A15   A(4,7,10)             109.4712         estimate D2E/DX2                !
 ! A16   A(8,7,9)              109.4712         estimate D2E/DX2                !
 ! A17   A(8,7,10)             109.4713         estimate D2E/DX2                !
 ! A18   A(9,7,10)             109.4712         estimate D2E/DX2                !
 ! A19   A(7,10,11)            109.4712         estimate D2E/DX2                !
 ! A20   A(7,10,12)            109.4712         estimate D2E/DX2                !
 ! A21   A(7,10,13)            109.4712         estimate D2E/DX2                !
 ! A22   A(11,10,12)           109.4713         estimate D2E/DX2                !
 ! A23   A(11,10,13)           109.4712         estimate D2E/DX2                !
 ! A24   A(12,10,13)           109.4712         estimate D2E/DX2                !
 ! A25   A(10,12,14)           107.2975         estimate D2E/DX2                !
 ! A26   A(10,12,15)           132.816          estimate D2E/DX2                !
 ! A27   A(14,12,15)           119.8865         estimate D2E/DX2                !
 ! A28   A(10,13,19)           109.4712         estimate D2E/DX2                !
 ! A29   A(10,13,20)           109.4712         estimate D2E/DX2                !
 ! A30   A(19,13,20)           109.4712         estimate D2E/DX2                !
 ! A31   A(12,15,18)           109.4712         estimate D2E/DX2                !
 ! D1    D(3,1,2,16)             0.0            estimate D2E/DX2                !
 ! D2    D(3,1,2,17)           180.0            estimate D2E/DX2                !
 ! D3    D(4,1,2,16)           180.0            estimate D2E/DX2                !
 ! D4    D(4,1,2,17)             0.0            estimate D2E/DX2                !
 ! D5    D(2,1,4,5)            -60.1417         estimate D2E/DX2                !
 ! D6    D(2,1,4,6)             59.8583         estimate D2E/DX2                !
 ! D7    D(2,1,4,7)            179.8583         estimate D2E/DX2                !
 ! D8    D(3,1,4,5)            119.8583         estimate D2E/DX2                !
 ! D9    D(3,1,4,6)           -120.1417         estimate D2E/DX2                !
 ! D10   D(3,1,4,7)             -0.1417         estimate D2E/DX2                !
 ! D11   D(1,4,7,8)             60.0499         estimate D2E/DX2                !
 ! D12   D(1,4,7,9)            -59.9501         estimate D2E/DX2                !
 ! D13   D(1,4,7,10)          -179.9501         estimate D2E/DX2                !
 ! D14   D(5,4,7,8)            -59.9501         estimate D2E/DX2                !
 ! D15   D(5,4,7,9)           -179.95           estimate D2E/DX2                !
 ! D16   D(5,4,7,10)            60.05           estimate D2E/DX2                !
 ! D17   D(6,4,7,8)           -179.9501         estimate D2E/DX2                !
 ! D18   D(6,4,7,9)             60.0499         estimate D2E/DX2                !
 ! D19   D(6,4,7,10)           -59.9501         estimate D2E/DX2                !
 ! D20   D(4,7,10,11)           60.0179         estimate D2E/DX2                !
 ! D21   D(4,7,10,12)         -179.9821         estimate D2E/DX2                !
 ! D22   D(4,7,10,13)          -59.9821         estimate D2E/DX2                !
 ! D23   D(8,7,10,11)         -179.9822         estimate D2E/DX2                !
 ! D24   D(8,7,10,12)          -59.9821         estimate D2E/DX2                !
 ! D25   D(8,7,10,13)           60.0178         estimate D2E/DX2                !
 ! D26   D(9,7,10,11)          -59.9821         estimate D2E/DX2                !
 ! D27   D(9,7,10,12)           60.0179         estimate D2E/DX2                !
 ! D28   D(9,7,10,13)         -179.9821         estimate D2E/DX2                !
 ! D29   D(7,10,12,14)          -0.0047         estimate D2E/DX2                !
 ! D30   D(7,10,12,15)         179.9953         estimate D2E/DX2                !
 ! D31   D(11,10,12,14)        119.9953         estimate D2E/DX2                !
 ! D32   D(11,10,12,15)        -60.0047         estimate D2E/DX2                !
 ! D33   D(13,10,12,14)       -120.0047         estimate D2E/DX2                !
 ! D34   D(13,10,12,15)         59.9953         estimate D2E/DX2                !
 ! D35   D(7,10,13,19)          30.8666         estimate D2E/DX2                !
 ! D36   D(7,10,13,20)         150.8666         estimate D2E/DX2                !
 ! D37   D(11,10,13,19)        -89.1334         estimate D2E/DX2                !
 ! D38   D(11,10,13,20)         30.8666         estimate D2E/DX2                !
 ! D39   D(12,10,13,19)        150.8665         estimate D2E/DX2                !
 ! D40   D(12,10,13,20)        -89.1335         estimate D2E/DX2                !
 ! D41   D(10,12,15,18)        179.8924         estimate D2E/DX2                !
 ! D42   D(14,12,15,18)         -0.1076         estimate D2E/DX2                !
 --------------------------------------------------------------------------------
 Trust Radius=3.00D-01 FncErr=1.00D-07 GrdErr=1.00D-06
 Number of steps in this run=    102 maximum allowed number of steps=    120.
 GradGradGradGradGradGradGradGradGradGradGradGradGradGradGradGradGradGrad

                          Input orientation:                          
 ---------------------------------------------------------------------
 Center     Atomic      Atomic             Coordinates (Angstroms)
 Number     Number       Type             X           Y           Z
 ---------------------------------------------------------------------
      1          6           0       -1.121464   -0.611181   -0.169284
      2          7           0       -0.388987   -1.885692   -0.169284
      3          8           0       -0.494424    0.479869   -0.169284
      4          6           0       -2.661464   -0.611181   -0.169284
      5          1           0       -3.018131   -1.113422   -1.044181
      6          1           0       -3.018131   -1.117743    0.703117
      7          6           0       -3.174798    0.840740   -0.165694
      8          1           0       -2.818849    1.347049   -1.038535
      9          1           0       -2.817414    1.343236    0.708763
     10          6           0       -4.714797    0.840737   -0.164428
     11          1           0       -5.070745    0.334699    0.708571
     12          6           0       -5.228131    2.292659   -0.161290
     13          7           0       -5.205783    0.150018   -1.365569
     14          8           0       -4.220080    3.045921   -0.160610
     15          8           0       -6.541068    2.859311   -0.159237
     16          1           0        0.611011   -1.887672   -0.169284
     17          1           0       -0.890701   -2.750725   -0.169284
     18          1           0       -6.476215    3.817112   -0.155768
     19          1           0       -4.554120   -0.560395   -1.631368
     20          1           0       -6.093167   -0.267736   -1.170552
 ---------------------------------------------------------------------
                    Distance matrix (angstroms):
                    1          2          3          4          5
     1  C    0.000000
     2  N    1.470000   0.000000
     3  O    1.258400   2.367909   0.000000
     4  C    1.540000   2.605481   2.426202   0.000000
     5  H    2.148263   2.876498   3.110163   1.070000   0.000000
     6  H    2.148263   2.874583   3.111679   1.070000   1.747303
     7  C    2.514810   3.897972   2.704560   1.540000   2.148263
     8  H    2.733382   4.136477   2.628792   2.148263   2.468534
     9  H    2.732574   4.134513   2.629192   2.148263   3.024610
    10  C    3.875581   5.113323   4.235776   2.514809   2.733382
    11  H    4.154773   5.255438   4.662019   2.733122   3.063073
    12  C    5.029619   6.393434   5.068950   3.875581   4.155115
    13  N    4.323446   5.364395   4.872043   2.912744   2.546643
    14  O    4.793317   6.244850   4.523849   3.975393   4.418768
    15  O    6.435566   7.769379   6.497980   5.205357   5.383011
    16  H    2.151953   1.000000   2.612898   3.512624   3.812555
    17  H    2.151953   1.000000   3.254808   2.777274   2.823502
    18  H    6.948620   8.341253   6.849759   5.844851   6.087511
    19  H    3.731406   4.608951   4.438578   2.392157   1.734904
    20  H    5.083141   6.013152   5.736495   3.591250   3.191709
                    6          7          8          9         10
     6  H    0.000000
     7  C    2.148263   0.000000
     8  H    3.024610   1.070000   0.000000
     9  H    2.469157   1.070000   1.747303   0.000000
    10  C    2.732573   1.540000   2.148263   2.148263   0.000000
    11  H    2.514527   2.148263   3.024610   2.468734   1.070000
    12  C    4.154774   2.514809   2.732833   2.733122   1.540000
    13  N    3.266880   2.457987   2.690221   3.380966   1.470000
    14  O    4.418914   2.440382   2.370731   2.371164   2.259999
    15  O    5.382536   3.925104   4.112786   4.113090   2.722119
    16  H    3.811108   4.666540   4.794055   4.792059   5.984018
    17  H    2.820225   4.256258   4.611410   4.609090   5.246173
    18  H    6.086774   4.445024   4.500757   4.500478   3.458537
    19  H    2.849512   2.452328   2.645933   3.480830   2.034920
    20  H    3.699865   3.279533   3.653234   4.105803   2.034920
                   11         12         13         14         15
    11  H    0.000000
    12  C    2.148263   0.000000
    13  N    2.086720   2.457987   0.000000
    14  O    2.971503   1.258400   3.287825   0.000000
    15  O    3.047721   1.430000   3.252459   2.328477   0.000000
    16  H    6.163758   7.181282   6.278405   6.905060   8.584065
    17  H    5.269083   6.651999   5.335292   6.684755   7.962364
    18  H    3.853521   1.970203   4.065119   2.384304   0.960000
    19  H    2.558009   3.279533   1.000000   3.908993   4.220132
    20  H    2.222471   2.884877   1.000000   3.938116   3.316895
                   16         17         18         19         20
    16  H    0.000000
    17  H    1.732051   0.000000
    18  H    9.097995   8.621753   0.000000
    19  H    5.529732   4.511748   5.003440   0.000000
    20  H    6.969414   5.850934   4.226404   1.632993   0.000000
 Stoichiometry    C5H10N2O3
 Framework group  C1[X(C5H10N2O3)]
 Deg. of freedom    54
 Full point group                 C1      NOp   1
 Largest Abelian subgroup         C1      NOp   1
 Largest concise Abelian subgroup C1      NOp   1
                         Standard orientation:                         
 ---------------------------------------------------------------------
 Center     Atomic      Atomic             Coordinates (Angstroms)
 Number     Number       Type             X           Y           Z
 ---------------------------------------------------------------------
      1          6           0       -2.617314   -0.222853    0.011223
      2          7           0       -3.944001    0.396817    0.140881
      3          8           0       -2.513223   -1.437745   -0.299862
      4          6           0       -1.350487    0.617609    0.256932
      5          1           0       -1.323152    1.432503   -0.435961
      6          1           0       -1.364142    0.999538    1.256353
      7          6           0       -0.103351   -0.264459    0.061468
      8          1           0       -0.089240   -0.645684   -0.938216
      9          1           0       -0.131121   -1.079839    0.753772
     10          6           0        1.163446    0.575690    0.308403
     11          1           0        1.149485    0.956658    1.308187
     12          6           0        2.410593   -0.306266    0.112501
     13          7           0        1.201381    1.696131   -0.642425
     14          8           0        2.009322   -1.459084   -0.193378
     15          8           0        3.812544   -0.043476    0.214363
     16          1           0       -4.767739   -0.147353   -0.018287
     17          1           0       -4.022770    1.362530    0.388252
     18          1           0        4.303314   -0.845837    0.022109
     19          1           0        0.267539    1.975098   -0.866292
     20          1           0        1.689700    2.465857   -0.231249
 ---------------------------------------------------------------------
 Rotational constants (GHZ):      3.2486023      0.5560003      0.4902934
 Standard basis: 6-31G(d) (6D, 7F)
 There are   170 symmetry adapted cartesian basis functions of A   symmetry.
 There are   170 symmetry adapted basis functions of A   symmetry.
   170 basis functions,   320 primitive gaussians,   170 cartesian basis functions
    39 alpha electrons       39 beta electrons
       nuclear repulsion energy       532.1176666357 Hartrees.
 NAtoms=   20 NActive=   20 NUniq=   20 SFac= 1.00D+00 NAtFMM=   60 NAOKFM=F Big=F
 Integral buffers will be    131072 words long.
 Raffenetti 2 integral format.
 Two-electron integral symmetry is turned on.
 One-electron integrals computed using PRISM.
 NBasis=   170 RedAO= T EigKep=  1.79D-03  NBF=   170
 NBsUse=   170 1.00D-06 EigRej= -1.00D+00 NBFU=   170
 ExpMin= 1.61D-01 ExpMax= 5.48D+03 ExpMxC= 8.25D+02 IAcc=1 IRadAn=         1 AccDes= 0.00D+00
 Harris functional with IExCor=  402 and IRadAn=       1 diagonalized for initial guess.
 HarFok:  IExCor=  402 AccDes= 0.00D+00 IRadAn=         1 IDoV= 1 UseB2=F ITyADJ=14
 ICtDFT=  3500011 ScaDFX=  1.000000  1.000000  1.000000  1.000000
 FoFCou: FMM=F IPFlag=           0 FMFlag=      100000 FMFlg1=           0
         NFxFlg=           0 DoJE=T BraDBF=F KetDBF=T FulRan=T
         wScrn=  0.000000 ICntrl=     500 IOpCl=  0 I1Cent=   200000004 NGrid=           0
         NMat0=    1 NMatS0=      1 NMatT0=    0 NMatD0=    1 NMtDS0=    0 NMtDT0=    0
 Petite list used in FoFCou.
 Requested convergence on RMS density matrix=1.00D-08 within 128 cycles.
 Requested convergence on MAX density matrix=1.00D-06.
 Requested convergence on             energy=1.00D-06.
 No special actions if energy rises.
 Integral accuracy reduced to 1.0D-05 until final iterations.
 Initial convergence to 1.0D-05 achieved.  Increase integral accuracy.
 SCF Done:  E(RB3LYP) =  -531.685318467     A.U. after   16 cycles
            NFock= 16  Conv=0.43D-08     -V/T= 2.0096

 **********************************************************************

            Population analysis using the SCF density.

 **********************************************************************

 Orbital symmetries:
       Occupied  (A) (A) (A) (A) (A) (A) (A) (A) (A) (A) (A) (A)
                 (A) (A) (A) (A) (A) (A) (A) (A) (A) (A) (A) (A)
                 (A) (A) (A) (A) (A) (A) (A) (A) (A) (A) (A) (A)
                 (A) (A) (A)
       Virtual   (A) (A) (A) (A) (A) (A) (A) (A) (A) (A) (A) (A)
                 (A) (A) (A) (A) (A) (A) (A) (A) (A) (A) (A) (A)
                 (A) (A) (A) (A) (A) (A) (A) (A) (A) (A) (A) (A)
                 (A) (A) (A) (A) (A) (A) (A) (A) (A) (A) (A) (A)
                 (A) (A) (A) (A) (A) (A) (A) (A) (A) (A) (A) (A)
                 (A) (A) (A) (A) (A) (A) (A) (A) (A) (A) (A) (A)
                 (A) (A) (A) (A) (A) (A) (A) (A) (A) (A) (A) (A)
                 (A) (A) (A) (A) (A) (A) (A) (A) (A) (A) (A) (A)
                 (A) (A) (A) (A) (A) (A) (A) (A) (A) (A) (A) (A)
                 (A) (A) (A) (A) (A) (A) (A) (A) (A) (A) (A) (A)
                 (A) (A) (A) (A) (A) (A) (A) (A) (A) (A) (A)
 The electronic state is 1-A.
 Alpha  occ. eigenvalues --  -19.19452 -19.13141 -19.12060 -14.35672 -14.32030
 Alpha  occ. eigenvalues --  -10.32454 -10.30545 -10.23937 -10.20566 -10.18089
 Alpha  occ. eigenvalues --   -1.07305  -1.01171  -0.99548  -0.90289  -0.88272
 Alpha  occ. eigenvalues --   -0.78860  -0.71827  -0.64819  -0.58763  -0.56321
 Alpha  occ. eigenvalues --   -0.53482  -0.52159  -0.50368  -0.48068  -0.46392
 Alpha  occ. eigenvalues --   -0.46360  -0.45611  -0.40708  -0.39688  -0.38431
 Alpha  occ. eigenvalues --   -0.37330  -0.36447  -0.35284  -0.34707  -0.30720
 Alpha  occ. eigenvalues --   -0.27020  -0.26284  -0.25230  -0.23551
 Alpha virt. eigenvalues --   -0.00803   0.00720   0.06257   0.07158   0.08046
 Alpha virt. eigenvalues --    0.11538   0.12224   0.13343   0.15113   0.16896
 Alpha virt. eigenvalues --    0.18022   0.18937   0.20535   0.22452   0.22979
 Alpha virt. eigenvalues --    0.25385   0.27150   0.30115   0.32205   0.36071
 Alpha virt. eigenvalues --    0.41222   0.51899   0.53363   0.53670   0.55395
 Alpha virt. eigenvalues --    0.55814   0.58036   0.61393   0.63480   0.64551
 Alpha virt. eigenvalues --    0.65373   0.66875   0.69250   0.69912   0.70275
 Alpha virt. eigenvalues --    0.73931   0.74618   0.76693   0.80468   0.81972
 Alpha virt. eigenvalues --    0.83415   0.85808   0.87512   0.88471   0.89032
 Alpha virt. eigenvalues --    0.89410   0.90183   0.90479   0.91838   0.92697
 Alpha virt. eigenvalues --    0.94479   0.95713   0.96743   0.98167   0.98701
 Alpha virt. eigenvalues --    1.01031   1.03943   1.07043   1.09908   1.14061
 Alpha virt. eigenvalues --    1.15983   1.17408   1.20911   1.27973   1.30910
 Alpha virt. eigenvalues --    1.32874   1.37615   1.40636   1.42862   1.43082
 Alpha virt. eigenvalues --    1.57706   1.60460   1.62350   1.64072   1.65947
 Alpha virt. eigenvalues --    1.67573   1.68895   1.73438   1.74125   1.75691
 Alpha virt. eigenvalues --    1.77299   1.79709   1.80808   1.84732   1.86291
 Alpha virt. eigenvalues --    1.88009   1.91048   1.93927   1.95222   1.98119
 Alpha virt. eigenvalues --    1.99779   2.00759   2.04139   2.05469   2.10292
 Alpha virt. eigenvalues --    2.12904   2.15379   2.21187   2.23063   2.25353
 Alpha virt. eigenvalues --    2.27610   2.32728   2.36101   2.39114   2.41081
 Alpha virt. eigenvalues --    2.43135   2.47835   2.52512   2.53633   2.55487
 Alpha virt. eigenvalues --    2.56948   2.57203   2.64344   2.68381   2.73357
 Alpha virt. eigenvalues --    2.82318   2.87099   2.95211   2.95704   2.98650
 Alpha virt. eigenvalues --    3.03075   3.75823   3.79731   3.86467   3.98178
 Alpha virt. eigenvalues --    4.04076   4.17476   4.24087   4.36784   4.47085
 Alpha virt. eigenvalues --    4.67224
          Condensed to atoms (all electrons):
               1          2          3          4          5          6
     1  C    4.369118   0.286044   0.564018   0.285605  -0.017279  -0.022106
     2  N    0.286044   7.068644  -0.077406  -0.105425   0.002144   0.001850
     3  O    0.564018  -0.077406   8.064684  -0.094836   0.000950   0.000992
     4  C    0.285605  -0.105425  -0.094836   5.430648   0.339418   0.348142
     5  H   -0.017279   0.002144   0.000950   0.339418   0.580161  -0.034581
     6  H   -0.022106   0.001850   0.000992   0.348142  -0.034581   0.565044
     7  C   -0.029380   0.002995   0.007062   0.306811  -0.033943  -0.029853
     8  H   -0.002646   0.000149   0.004149  -0.043288  -0.004576   0.005305
     9  H   -0.001507   0.000155   0.003905  -0.040542   0.005272  -0.004261
    10  C    0.004600  -0.000003   0.001087  -0.036385  -0.005564  -0.002904
    11  H   -0.000356   0.000000   0.000002  -0.006750  -0.000317   0.005850
    12  C   -0.000027   0.000000  -0.000025   0.005612  -0.000084  -0.000110
    13  N    0.000335  -0.000002  -0.000011  -0.008346  -0.000723  -0.000747
    14  O   -0.000032   0.000000   0.000007   0.002696  -0.000030  -0.000014
    15  O    0.000000   0.000000   0.000000   0.000004  -0.000001   0.000000
    16  H   -0.003589   0.295839   0.006133   0.005674  -0.000127  -0.000136
    17  H   -0.014869   0.299189   0.002850   0.004607   0.000610   0.000471
    18  H    0.000000   0.000000   0.000000   0.000000   0.000000   0.000000
    19  H   -0.000072  -0.000008   0.000009   0.003447   0.013428   0.000050
    20  H    0.000015   0.000000   0.000000   0.000609  -0.000235  -0.000093
               7          8          9         10         11         12
     1  C   -0.029380  -0.002646  -0.001507   0.004600  -0.000356  -0.000027
     2  N    0.002995   0.000149   0.000155  -0.000003   0.000000   0.000000
     3  O    0.007062   0.004149   0.003905   0.001087   0.000002  -0.000025
     4  C    0.306811  -0.043288  -0.040542  -0.036385  -0.006750   0.005612
     5  H   -0.033943  -0.004576   0.005272  -0.005564  -0.000317  -0.000084
     6  H   -0.029853   0.005305  -0.004261  -0.002904   0.005850  -0.000110
     7  C    5.018146   0.386755   0.387228   0.347992  -0.040340  -0.039468
     8  H    0.386755   0.517955  -0.022540  -0.034921   0.006392  -0.006880
     9  H    0.387228  -0.022540   0.520741  -0.031677  -0.002007  -0.003414
    10  C    0.347992  -0.034921  -0.031677   5.123235   0.349098   0.314606
    11  H   -0.040340   0.006392  -0.002007   0.349098   0.652726  -0.048950
    12  C   -0.039468  -0.006880  -0.003414   0.314606  -0.048950   4.447380
    13  N   -0.043496  -0.000538   0.003732   0.274905  -0.053315  -0.051117
    14  O   -0.011303   0.004468   0.003062  -0.102828   0.003476   0.510457
    15  O    0.001536  -0.000001  -0.000013  -0.058166   0.001782   0.254386
    16  H   -0.000111  -0.000002  -0.000002   0.000000   0.000000   0.000000
    17  H   -0.000098  -0.000004  -0.000003  -0.000013   0.000000   0.000000
    18  H   -0.000134  -0.000009   0.000000   0.006186  -0.000349  -0.000416
    19  H   -0.010521   0.000478   0.000208  -0.042898   0.001801   0.004128
    20  H    0.005186  -0.000075  -0.000242  -0.025956  -0.008749  -0.000615
              13         14         15         16         17         18
     1  C    0.000335  -0.000032   0.000000  -0.003589  -0.014869   0.000000
     2  N   -0.000002   0.000000   0.000000   0.295839   0.299189   0.000000
     3  O   -0.000011   0.000007   0.000000   0.006133   0.002850   0.000000
     4  C   -0.008346   0.002696   0.000004   0.005674   0.004607   0.000000
     5  H   -0.000723  -0.000030  -0.000001  -0.000127   0.000610   0.000000
     6  H   -0.000747  -0.000014   0.000000  -0.000136   0.000471   0.000000
     7  C   -0.043496  -0.011303   0.001536  -0.000111  -0.000098  -0.000134
     8  H   -0.000538   0.004468  -0.000001  -0.000002  -0.000004  -0.000009
     9  H    0.003732   0.003062  -0.000013  -0.000002  -0.000003   0.000000
    10  C    0.274905  -0.102828  -0.058166   0.000000  -0.000013   0.006186
    11  H   -0.053315   0.003476   0.001782   0.000000   0.000000  -0.000349
    12  C   -0.051117   0.510457   0.254386   0.000000   0.000000  -0.000416
    13  N    6.973010   0.001152   0.002318   0.000000   0.000001  -0.000355
    14  O    0.001152   8.101967  -0.072833   0.000000   0.000000   0.010715
    15  O    0.002318  -0.072833   8.259786   0.000000   0.000000   0.215970
    16  H    0.000000   0.000000   0.000000   0.370584  -0.021478   0.000000
    17  H    0.000001   0.000000   0.000000  -0.021478   0.399653   0.000000
    18  H   -0.000355   0.010715   0.215970   0.000000   0.000000   0.349720
    19  H    0.320321  -0.000182  -0.000071   0.000000  -0.000002   0.000009
    20  H    0.311501  -0.000094   0.000695   0.000000   0.000000   0.000011
              19         20
     1  C   -0.000072   0.000015
     2  N   -0.000008   0.000000
     3  O    0.000009   0.000000
     4  C    0.003447   0.000609
     5  H    0.013428  -0.000235
     6  H    0.000050  -0.000093
     7  C   -0.010521   0.005186
     8  H    0.000478  -0.000075
     9  H    0.000208  -0.000242
    10  C   -0.042898  -0.025956
    11  H    0.001801  -0.008749
    12  C    0.004128  -0.000615
    13  N    0.320321   0.311501
    14  O   -0.000182  -0.000094
    15  O   -0.000071   0.000695
    16  H    0.000000   0.000000
    17  H   -0.000002   0.000000
    18  H    0.000009   0.000011
    19  H    0.429429  -0.030717
    20  H   -0.030717   0.440267
 Mulliken charges:
               1
     1  C    0.582129
     2  N   -0.774164
     3  O   -0.483570
     4  C   -0.397699
     5  H    0.155476
     6  H    0.167099
     7  C   -0.225064
     8  H    0.189828
     9  H    0.181906
    10  C   -0.080392
    11  H    0.140004
    12  C    0.614539
    13  N   -0.728626
    14  O   -0.450684
    15  O   -0.605391
    16  H    0.347217
    17  H    0.329086
    18  H    0.418651
    19  H    0.311165
    20  H    0.308491
 Sum of Mulliken charges =   0.00000
 Mulliken charges with hydrogens summed into heavy atoms:
               1
     1  C    0.582129
     2  N   -0.097861
     3  O   -0.483570
     4  C   -0.075123
     7  C    0.146669
    10  C    0.059612
    12  C    0.614539
    13  N   -0.108971
    14  O   -0.450684
    15  O   -0.186740
 Electronic spatial extent (au):  <R**2>=           2152.1606
 Charge=              0.0000 electrons
 Dipole moment (field-independent basis, Debye):
    X=             -1.3785    Y=              4.6123    Z=              2.0873  Tot=              5.2470
 Quadrupole moment (field-independent basis, Debye-Ang):
   XX=            -44.7257   YY=            -59.8781   ZZ=            -60.0535
   XY=            -10.4932   XZ=              0.1036   YZ=              0.3641
 Traceless Quadrupole moment (field-independent basis, Debye-Ang):
   XX=             10.1601   YY=             -4.9924   ZZ=             -5.1677
   XY=            -10.4932   XZ=              0.1036   YZ=              0.3641
 Octapole moment (field-independent basis, Debye-Ang**2):
  XXX=            -26.9296  YYY=             21.6210  ZZZ=              1.4165  XYY=              6.1113
  XXY=              0.1840  XXZ=              4.7267  XZZ=              1.6764  YZZ=             -4.3417
  YYZ=              4.4539  XYZ=              1.8905
 Hexadecapole moment (field-independent basis, Debye-Ang**3):
 XXXX=          -1509.2962 YYYY=           -362.8353 ZZZZ=           -105.3655 XXXY=           -178.4418
 XXXZ=            -28.2713 YYYX=             -7.8029 YYYZ=             -2.7543 ZZZX=              7.4534
 ZZZY=              6.0451 XXYY=           -396.4094 XXZZ=           -391.0292 YYZZ=            -83.1067
 XXYZ=              9.9144 YYXZ=              0.8472 ZZXY=             -7.1988
 N-N= 5.321176666357D+02 E-N=-2.307458105299D+03  KE= 5.266361541972D+02
 Calling FoFJK, ICntrl=      2127 FMM=F ISym2X=0 I1Cent= 0 IOpClX= 0 NMat=1 NMatS=1 NMatT=0.
 ***** Axes restored to original set *****
 -------------------------------------------------------------------
 Center     Atomic                   Forces (Hartrees/Bohr)
 Number     Number              X              Y              Z
 -------------------------------------------------------------------
      1        6           0.060037711    0.010533383   -0.000470348
      2        7          -0.050335862    0.057830749   -0.000036158
      3        8          -0.023747075   -0.055263368    0.000177535
      4        6           0.024998166    0.017448792    0.002263800
      5        1          -0.000654755   -0.015583996   -0.011312352
      6        1          -0.006259323   -0.014046271    0.013368260
      7        6          -0.014818560   -0.022502326    0.002459189
      8        1           0.005543742    0.008599900   -0.008785997
      9        1           0.006677994    0.007898636    0.008007978
     10        6          -0.024338581   -0.009645632   -0.020455409
     11        1          -0.006003184   -0.007533837    0.022324983
     12        6           0.058947405    0.077590149    0.000284800
     13        7          -0.002230746    0.019614333   -0.002091514
     14        8          -0.067632809    0.001212601    0.001036598
     15        8           0.031414049   -0.065660909    0.000525062
     16        1           0.007221877    0.003664306   -0.000026762
     17        1          -0.001886196   -0.008001013    0.000044145
     18        1           0.014393618    0.012057826   -0.000643872
     19        1           0.001296987   -0.009856470   -0.005126645
     20        1          -0.012624458   -0.008356852   -0.001543294
 -------------------------------------------------------------------
 Cartesian Forces:  Max     0.077590149 RMS     0.025271855

 GradGradGradGradGradGradGradGradGradGradGradGradGradGradGradGradGradGrad
 Berny optimization.
 FormGI is forming the generalized inverse of G from B-inverse, IUseBI=4.
 Internal  Forces:  Max     0.085530927 RMS     0.019029280
 Search for a local minimum.
 Step number   1 out of a maximum of  102
 All quantities printed in internal units (Hartrees-Bohrs-Radians)
 Mixed Optimization -- RFO/linear search
 Second derivative matrix not updated -- first step.
 ITU=  0
     Eigenvalues ---    0.00237   0.00237   0.00237   0.00237   0.00449
     Eigenvalues ---    0.00541   0.00766   0.00766   0.00766   0.01295
     Eigenvalues ---    0.03840   0.04248   0.04356   0.04828   0.04896
     Eigenvalues ---    0.05056   0.05410   0.06194   0.07655   0.08669
     Eigenvalues ---    0.11701   0.12376   0.16000   0.16000   0.16000
     Eigenvalues ---    0.16000   0.16000   0.16855   0.17980   0.21948
     Eigenvalues ---    0.21983   0.25000   0.25000   0.25000   0.25000
     Eigenvalues ---    0.28519   0.28519   0.28519   0.28519   0.35740
     Eigenvalues ---    0.35740   0.37230   0.37230   0.37230   0.37230
     Eigenvalues ---    0.37230   0.40989   0.47688   0.47688   0.47688
     Eigenvalues ---    0.47688   0.55473   0.80209   0.80209
 RFO step:  Lambda=-8.19202009D-02 EMin= 2.36824115D-03
 Linear search not attempted -- first point.
 Maximum step size (   0.300) exceeded in Quadratic search.
    -- Step size scaled by   0.650
 Iteration  1 RMS(Cart)=  0.08635873 RMS(Int)=  0.00474454
 Iteration  2 RMS(Cart)=  0.00562865 RMS(Int)=  0.00015616
 Iteration  3 RMS(Cart)=  0.00001553 RMS(Int)=  0.00015576
 Iteration  4 RMS(Cart)=  0.00000000 RMS(Int)=  0.00015576
 Variable       Old X    -DE/DX   Delta X   Delta X   Delta X     New X
                                 (Linear)    (Quad)   (Total)
    R1        2.77790  -0.06881   0.00000  -0.10176  -0.10176   2.67614
    R2        2.37803  -0.05974   0.00000  -0.04391  -0.04391   2.33413
    R3        2.91018  -0.00870   0.00000  -0.01539  -0.01539   2.89479
    R4        1.88973   0.00722   0.00000   0.00839   0.00839   1.89812
    R5        1.88973   0.00786   0.00000   0.00914   0.00914   1.89887
    R6        2.02201   0.01678   0.00000   0.02400   0.02400   2.04601
    R7        2.02201   0.01964   0.00000   0.02809   0.02809   2.05009
    R8        2.91018   0.00632   0.00000   0.01118   0.01118   2.92136
    R9        2.02201   0.01308   0.00000   0.01871   0.01871   2.04072
   R10        2.02201   0.01248   0.00000   0.01786   0.01786   2.03986
   R11        2.91018   0.00679   0.00000   0.01201   0.01201   2.92219
   R12        2.02201   0.02377   0.00000   0.03400   0.03400   2.05601
   R13        2.91018   0.01138   0.00000   0.02014   0.02014   2.93032
   R14        2.77790   0.01104   0.00000   0.01632   0.01632   2.79422
   R15        2.37803  -0.05346   0.00000  -0.03929  -0.03929   2.33875
   R16        2.70231  -0.06329   0.00000  -0.08361  -0.08361   2.61870
   R17        1.88973   0.00921   0.00000   0.01071   0.01071   1.90044
   R18        1.88973   0.01439   0.00000   0.01673   0.01673   1.90646
   R19        1.81414   0.01300   0.00000   0.01326   0.01326   1.82740
    A1        2.09836   0.00210   0.00000   0.00411   0.00411   2.10247
    A2        2.09241  -0.02072   0.00000  -0.04055  -0.04055   2.05186
    A3        2.09241   0.01862   0.00000   0.03644   0.03644   2.12885
    A4        2.09440  -0.00614   0.00000  -0.01650  -0.01650   2.07789
    A5        2.09440   0.00533   0.00000   0.01430   0.01430   2.10870
    A6        2.09440   0.00082   0.00000   0.00220   0.00220   2.09660
    A7        1.91063  -0.00585   0.00000  -0.01844  -0.01867   1.89197
    A8        1.91063  -0.00253   0.00000  -0.00909  -0.00921   1.90142
    A9        1.91063   0.00442   0.00000   0.01173   0.01172   1.92236
   A10        1.91063  -0.00267   0.00000  -0.01341  -0.01370   1.89694
   A11        1.91063   0.00580   0.00000   0.02294   0.02300   1.93363
   A12        1.91063   0.00083   0.00000   0.00626   0.00629   1.91692
   A13        1.91063  -0.00122   0.00000   0.00437   0.00414   1.91478
   A14        1.91063  -0.00641   0.00000  -0.01818  -0.01810   1.89254
   A15        1.91063   0.01440   0.00000   0.03387   0.03378   1.94441
   A16        1.91063   0.00037   0.00000  -0.00829  -0.00836   1.90227
   A17        1.91063  -0.00355   0.00000  -0.00302  -0.00335   1.90729
   A18        1.91063  -0.00359   0.00000  -0.00876  -0.00860   1.90204
   A19        1.91063  -0.00720   0.00000  -0.01792  -0.01795   1.89268
   A20        1.91063   0.00883   0.00000   0.02427   0.02456   1.93519
   A21        1.91063   0.01056   0.00000   0.03269   0.03285   1.94348
   A22        1.91063  -0.00183   0.00000  -0.01568  -0.01568   1.89496
   A23        1.91063   0.00345   0.00000   0.01022   0.00994   1.92057
   A24        1.91063  -0.01381   0.00000  -0.03357  -0.03409   1.87654
   A25        1.87269   0.08553   0.00000   0.16741   0.16741   2.04011
   A26        2.31808  -0.07247   0.00000  -0.14185  -0.14185   2.17623
   A27        2.09241  -0.01306   0.00000  -0.02556  -0.02556   2.06685
   A28        1.91063   0.00764   0.00000   0.02128   0.02115   1.93178
   A29        1.91063   0.00623   0.00000   0.01748   0.01735   1.92798
   A30        1.91063  -0.00603   0.00000  -0.01468  -0.01493   1.89571
   A31        1.91063  -0.02457   0.00000  -0.06597  -0.06597   1.84466
    D1        0.00000  -0.00005   0.00000  -0.00038  -0.00037  -0.00037
    D2        3.14159  -0.00008   0.00000  -0.00058  -0.00058   3.14101
    D3        3.14159   0.00002   0.00000   0.00016   0.00016  -3.14143
    D4        0.00000  -0.00001   0.00000  -0.00004  -0.00005  -0.00005
    D5       -1.04967   0.00489   0.00000   0.01917   0.01900  -1.03068
    D6        1.04472  -0.00351   0.00000  -0.01411  -0.01398   1.03075
    D7        3.13912  -0.00135   0.00000  -0.00482  -0.00478   3.13434
    D8        2.09192   0.00496   0.00000   0.01971   0.01954   2.11146
    D9       -2.09687  -0.00344   0.00000  -0.01357  -0.01344  -2.11030
   D10       -0.00247  -0.00127   0.00000  -0.00428  -0.00424  -0.00671
   D11        1.04807  -0.00240   0.00000  -0.00865  -0.00867   1.03940
   D12       -1.04633   0.00182   0.00000   0.00996   0.00995  -1.03638
   D13       -3.14072   0.00133   0.00000   0.01108   0.01124  -3.12948
   D14       -1.04633  -0.00149   0.00000  -0.00730  -0.00741  -1.05374
   D15       -3.14072   0.00272   0.00000   0.01131   0.01121  -3.12951
   D16        1.04807   0.00223   0.00000   0.01242   0.01250   1.06057
   D17       -3.14072  -0.00229   0.00000  -0.00876  -0.00882   3.13364
   D18        1.04807   0.00193   0.00000   0.00985   0.00980   1.05786
   D19       -1.04633   0.00144   0.00000   0.01096   0.01109  -1.03524
   D20        1.04751  -0.00131   0.00000  -0.01114  -0.01123   1.03628
   D21       -3.14128  -0.00256   0.00000  -0.02645  -0.02669   3.11522
   D22       -1.04689  -0.00760   0.00000  -0.03269  -0.03242  -1.07931
   D23       -3.14128   0.00384   0.00000   0.01312   0.01305  -3.12823
   D24       -1.04689   0.00260   0.00000  -0.00220  -0.00241  -1.04930
   D25        1.04751  -0.00245   0.00000  -0.00844  -0.00814   1.03937
   D26       -1.04689  -0.00008   0.00000  -0.00425  -0.00431  -1.05120
   D27        1.04751  -0.00132   0.00000  -0.01957  -0.01977   1.02774
   D28       -3.14128  -0.00636   0.00000  -0.02581  -0.02550   3.11640
   D29       -0.00008   0.00435   0.00000   0.01357   0.01344   0.01335
   D30        3.14151   0.00469   0.00000   0.01611   0.01604  -3.12564
   D31        2.09431  -0.00018   0.00000  -0.00312  -0.00339   2.09092
   D32       -1.04728   0.00016   0.00000  -0.00058  -0.00079  -1.04807
   D33       -2.09448  -0.00553   0.00000  -0.02077  -0.02045  -2.11493
   D34        1.04712  -0.00519   0.00000  -0.01822  -0.01785   1.02926
   D35        0.53872  -0.00293   0.00000  -0.00652  -0.00627   0.53245
   D36        2.63312  -0.00183   0.00000  -0.00076  -0.00038   2.63274
   D37       -1.55567  -0.00270   0.00000  -0.01085  -0.01109  -1.56677
   D38        0.53872  -0.00159   0.00000  -0.00509  -0.00520   0.53352
   D39        2.63312   0.00589   0.00000   0.02266   0.02246   2.65557
   D40       -1.55567   0.00699   0.00000   0.02842   0.02835  -1.52732
   D41        3.13971   0.00041   0.00000   0.00268   0.00277  -3.14070
   D42       -0.00188   0.00078   0.00000   0.00548   0.00540   0.00352
         Item               Value     Threshold  Converged?
 Maximum Force            0.085531     0.000450     NO 
 RMS     Force            0.019029     0.000300     NO 
 Maximum Displacement     0.346426     0.001800     NO 
 RMS     Displacement     0.085353     0.001200     NO 
 Predicted change in Energy=-3.993833D-02
 GradGradGradGradGradGradGradGradGradGradGradGradGradGradGradGradGradGrad

                          Input orientation:                          
 ---------------------------------------------------------------------
 Center     Atomic      Atomic             Coordinates (Angstroms)
 Number     Number       Type             X           Y           Z
 ---------------------------------------------------------------------
      1          6           0       -1.078951   -0.626937   -0.163765
      2          7           0       -0.428452   -1.884575   -0.137604
      3          8           0       -0.420908    0.418229   -0.179318
      4          6           0       -2.610777   -0.621239   -0.171053
      5          1           0       -2.950434   -1.164362   -1.043916
      6          1           0       -2.969090   -1.131268    0.716872
      7          6           0       -3.137649    0.832004   -0.189698
      8          1           0       -2.773312    1.340205   -1.070139
      9          1           0       -2.767778    1.340467    0.687725
     10          6           0       -4.683454    0.872088   -0.179996
     11          1           0       -5.035176    0.369004    0.718296
     12          6           0       -5.198234    2.334677   -0.160648
     13          7           0       -5.246542    0.217903   -1.380556
     14          8           0       -4.343052    3.229242   -0.170561
     15          8           0       -6.534609    2.700064   -0.130403
     16          1           0        0.575530   -1.914446   -0.132205
     17          1           0       -0.958481   -2.738150   -0.124365
     18          1           0       -6.541308    3.667046   -0.125458
     19          1           0       -4.641818   -0.519475   -1.699857
     20          1           0       -6.152966   -0.174873   -1.175838
 ---------------------------------------------------------------------
                    Distance matrix (angstroms):
                    1          2          3          4          5
     1  C    0.000000
     2  N    1.416152   0.000000
     3  O    1.235166   2.303194   0.000000
     4  C    1.531855   2.521841   2.424065   0.000000
     5  H    2.136806   2.774978   3.106546   1.082700   0.000000
     6  H    2.145343   2.784321   3.114053   1.084863   1.761198
     7  C    2.523375   3.836961   2.748090   1.545917   2.179499
     8  H    2.749913   4.094777   2.679068   2.163801   2.510959
     9  H    2.729076   4.068724   2.666474   2.147193   3.050592
    10  C    3.903817   5.070112   4.286640   2.554622   2.810133
    11  H    4.173925   5.199336   4.701021   2.765724   3.130935
    12  C    5.073428   6.368159   5.147423   3.928420   4.251593
    13  N    4.423025   5.401790   4.976931   3.018992   2.701128
    14  O    5.052180   6.440210   4.825461   4.222201   4.691043
    15  O    6.390169   7.635714   6.525833   5.140930   5.349262
    16  H    2.096660   1.004441   2.537022   3.438961   3.718369
    17  H    2.115014   1.004837   3.202302   2.685810   2.700049
    18  H    6.948173   8.257582   6.929430   5.817262   6.089371
    19  H    3.881385   4.696445   4.583384   2.544155   1.925336
    20  H    5.193678   6.063916   5.848188   3.708900   3.354505
                    6          7          8          9         10
     6  H    0.000000
     7  C    2.169037   0.000000
     8  H    3.056128   1.079901   0.000000
     9  H    2.480091   1.079449   1.757873   0.000000
    10  C    2.785113   1.546355   2.158733   2.154561   0.000000
    11  H    2.553337   2.153933   3.042656   2.466935   1.087994
    12  C    4.213301   2.550467   2.774238   2.759585   1.550658
    13  N    3.377314   2.498538   2.733639   3.417924   1.478637
    14  O    4.657183   2.683302   2.615680   2.604921   2.381624
    15  O    5.301878   3.877177   4.108488   4.087402   2.602063
    16  H    3.728087   4.618874   4.763110   4.737558   5.951804
    17  H    2.707822   4.183186   4.563013   4.535214   5.187711
    18  H    6.041033   4.430179   4.528179   4.507080   3.356543
    19  H    3.002147   2.523807   2.710401   3.559770   2.061106
    20  H    3.825456   3.328425   3.705226   4.150737   2.060897
                   11         12         13         14         15
    11  H    0.000000
    12  C    2.159398   0.000000
    13  N    2.114872   2.443612   0.000000
    14  O    3.074095   1.237611   3.368759   0.000000
    15  O    2.898695   1.385756   3.063188   2.254898   0.000000
    16  H    6.116986   7.168836   6.324699   7.116983   8.476307
    17  H    5.194606   6.611385   5.357587   6.860556   7.788929
    18  H    3.722557   1.892166   3.892078   2.241883   0.967017
    19  H    2.606068   3.290129   1.005669   4.059666   4.051083
    20  H    2.265613   2.870534   1.008855   3.984265   3.082831
                   16         17         18         19         20
    16  H    0.000000
    17  H    1.741189   0.000000
    18  H    9.044473   8.496735   0.000000
    19  H    5.623540   4.579484   4.859398   0.000000
    20  H    7.027656   5.887161   4.001805   1.636128   0.000000
 Stoichiometry    C5H10N2O3
 Framework group  C1[X(C5H10N2O3)]
 Deg. of freedom    54
 Full point group                 C1      NOp   1
 Largest Abelian subgroup         C1      NOp   1
 Largest concise Abelian subgroup C1      NOp   1
                         Standard orientation:                         
 ---------------------------------------------------------------------
 Center     Atomic      Atomic             Coordinates (Angstroms)
 Number     Number       Type             X           Y           Z
 ---------------------------------------------------------------------
      1          6           0       -2.662606   -0.223525    0.009990
      2          7           0       -3.911601    0.424839    0.168489
      3          8           0       -2.611999   -1.416706   -0.305276
      4          6           0       -1.397556    0.607996    0.244089
      5          1           0       -1.404014    1.441872   -0.446454
      6          1           0       -1.413334    0.995574    1.257233
      7          6           0       -0.139737   -0.266479    0.036621
      8          1           0       -0.130142   -0.657698   -0.969879
      9          1           0       -0.177916   -1.090115    0.733309
     10          6           0        1.155889    0.540918    0.282946
     11          1           0        1.138363    0.916803    1.303796
     12          6           0        2.408108   -0.356916    0.108644
     13          7           0        1.278609    1.665604   -0.669099
     14          8           0        2.210875   -1.538013   -0.204069
     15          8           0        3.715056    0.070397    0.280722
     16          1           0       -4.755558   -0.099334    0.020565
     17          1           0       -3.959028    1.395141    0.425317
     18          1           0        4.268351   -0.703005    0.105115
     19          1           0        0.370620    2.005825   -0.935890
     20          1           0        1.797557    2.424446   -0.253599
 ---------------------------------------------------------------------
 Rotational constants (GHZ):      3.1974549      0.5473971      0.4835180
 Standard basis: 6-31G(d) (6D, 7F)
 There are   170 symmetry adapted cartesian basis functions of A   symmetry.
 There are   170 symmetry adapted basis functions of A   symmetry.
   170 basis functions,   320 primitive gaussians,   170 cartesian basis functions
    39 alpha electrons       39 beta electrons
       nuclear repulsion energy       531.1211131980 Hartrees.
 NAtoms=   20 NActive=   20 NUniq=   20 SFac= 1.00D+00 NAtFMM=   60 NAOKFM=F Big=F
 Integral buffers will be    131072 words long.
 Raffenetti 2 integral format.
 Two-electron integral symmetry is turned on.
 One-electron integrals computed using PRISM.
 NBasis=   170 RedAO= T EigKep=  2.00D-03  NBF=   170
 NBsUse=   170 1.00D-06 EigRej= -1.00D+00 NBFU=   170
 Initial guess from the checkpoint file:  "glutamine.chk"
 B after Tr=     0.000000    0.000000    0.000000
         Rot=    0.999993    0.003407    0.001674    0.000200 Ang=   0.44 deg.
 ExpMin= 1.61D-01 ExpMax= 5.48D+03 ExpMxC= 8.25D+02 IAcc=1 IRadAn=         1 AccDes= 0.00D+00
 Harris functional with IExCor=  402 and IRadAn=       1 diagonalized for initial guess.
 HarFok:  IExCor=  402 AccDes= 0.00D+00 IRadAn=         1 IDoV= 1 UseB2=F ITyADJ=14
 ICtDFT=  3500011 ScaDFX=  1.000000  1.000000  1.000000  1.000000
 FoFCou: FMM=F IPFlag=           0 FMFlag=      100000 FMFlg1=           0
         NFxFlg=           0 DoJE=T BraDBF=F KetDBF=T FulRan=T
         wScrn=  0.000000 ICntrl=     500 IOpCl=  0 I1Cent=   200000004 NGrid=           0
         NMat0=    1 NMatS0=      1 NMatT0=    0 NMatD0=    1 NMtDS0=    0 NMtDT0=    0
 Petite list used in FoFCou.
 Requested convergence on RMS density matrix=1.00D-08 within 128 cycles.
 Requested convergence on MAX density matrix=1.00D-06.
 Requested convergence on             energy=1.00D-06.
 No special actions if energy rises.
 Integral accuracy reduced to 1.0D-05 until final iterations.
 Initial convergence to 1.0D-05 achieved.  Increase integral accuracy.
 SCF Done:  E(RB3LYP) =  -531.723725680     A.U. after   13 cycles
            NFock= 13  Conv=0.48D-08     -V/T= 2.0095
 Calling FoFJK, ICntrl=      2127 FMM=F ISym2X=0 I1Cent= 0 IOpClX= 0 NMat=1 NMatS=1 NMatT=0.
 ***** Axes restored to original set *****
 -------------------------------------------------------------------
 Center     Atomic                   Forces (Hartrees/Bohr)
 Number     Number              X              Y              Z
 -------------------------------------------------------------------
      1        6           0.034764302   -0.001776024    0.000273653
      2        7          -0.029888895    0.031154638   -0.000815317
      3        8          -0.011932438   -0.021308476    0.000459611
      4        6           0.009832308    0.014563545    0.001662272
      5        1          -0.001827058   -0.008710938   -0.005476021
      6        1          -0.003660790   -0.007389633    0.005436632
      7        6          -0.014543836   -0.013282553   -0.000140228
      8        1           0.003897763    0.005914119   -0.004343056
      9        1           0.003825331    0.006935532    0.003479485
     10        6          -0.018796802   -0.002684171   -0.011631862
     11        1          -0.002869825   -0.001678475    0.011092139
     12        6           0.033951698    0.048294511    0.001467409
     13        7           0.000595570    0.013429364    0.000765027
     14        8          -0.027290567   -0.017010350    0.000793533
     15        8           0.017679267   -0.040678731    0.000018373
     16        1           0.003689598    0.001144284   -0.000031893
     17        1           0.000718268   -0.004488248    0.000136748
     18        1           0.005280898    0.006988992   -0.000838834
     19        1           0.002085011   -0.006540921   -0.001936037
     20        1          -0.005509803   -0.002876464   -0.000371635
 -------------------------------------------------------------------
 Cartesian Forces:  Max     0.048294511 RMS     0.014274917

 GradGradGradGradGradGradGradGradGradGradGradGradGradGradGradGradGradGrad
 Berny optimization.
 Using GEDIIS/GDIIS optimizer.
 FormGI is forming the generalized inverse of G from B-inverse, IUseBI=4.
 GSVD:  received Info=                   1 from GESDD.
 Internal  Forces:  Max     0.045866491 RMS     0.009628766
 Search for a local minimum.
 Step number   2 out of a maximum of  102
 All quantities printed in internal units (Hartrees-Bohrs-Radians)
 Mixed Optimization -- RFO/linear search
 Update second derivatives using D2CorX and points    1    2
 DE= -3.84D-02 DEPred=-3.99D-02 R= 9.62D-01
 TightC=F SS=  1.41D+00  RLast= 3.13D-01 DXNew= 5.0454D-01 9.3910D-01
 Trust test= 9.62D-01 RLast= 3.13D-01 DXMaxT set to 5.05D-01
 ITU=  1  0
 Use linear search instead of GDIIS.
     Eigenvalues ---    0.00237   0.00237   0.00237   0.00238   0.00444
     Eigenvalues ---    0.00507   0.00766   0.00766   0.00766   0.01295
     Eigenvalues ---    0.03650   0.04052   0.04245   0.04631   0.04847
     Eigenvalues ---    0.04943   0.05292   0.06452   0.07979   0.08915
     Eigenvalues ---    0.11962   0.12485   0.15827   0.16000   0.16000
     Eigenvalues ---    0.16000   0.16144   0.17523   0.17807   0.19931
     Eigenvalues ---    0.21976   0.22083   0.25000   0.25000   0.27055
     Eigenvalues ---    0.28502   0.28519   0.28519   0.32311   0.35417
     Eigenvalues ---    0.36804   0.37173   0.37230   0.37230   0.37230
     Eigenvalues ---    0.38803   0.42609   0.47589   0.47688   0.47688
     Eigenvalues ---    0.47880   0.55418   0.77892   0.80897
 RFO step:  Lambda=-1.96797901D-02 EMin= 2.36822862D-03
 Quartic linear search produced a step of  0.97013.
 Iteration  1 RMS(Cart)=  0.11031576 RMS(Int)=  0.00772636
 Iteration  2 RMS(Cart)=  0.01844872 RMS(Int)=  0.00060851
 Iteration  3 RMS(Cart)=  0.00036525 RMS(Int)=  0.00051493
 Iteration  4 RMS(Cart)=  0.00000017 RMS(Int)=  0.00051493
 Variable       Old X    -DE/DX   Delta X   Delta X   Delta X     New X
                                 (Linear)    (Quad)   (Total)
    R1        2.67614  -0.03641  -0.09872  -0.05572  -0.15444   2.52170
    R2        2.33413  -0.02439  -0.04260  -0.00437  -0.04697   2.28716
    R3        2.89479  -0.00267  -0.01493   0.00353  -0.01140   2.88339
    R4        1.89812   0.00365   0.00814   0.00373   0.01187   1.90998
    R5        1.89887   0.00344   0.00887   0.00193   0.01080   1.90966
    R6        2.04601   0.00936   0.02328   0.01542   0.03870   2.08471
    R7        2.05009   0.00913   0.02725   0.00901   0.03626   2.08636
    R8        2.92136  -0.00240   0.01085  -0.03027  -0.01942   2.90194
    R9        2.04072   0.00764   0.01815   0.01373   0.03188   2.07260
   R10        2.03986   0.00741   0.01732   0.01368   0.03100   2.07086
   R11        2.92219  -0.00520   0.01165  -0.04929  -0.03764   2.88455
   R12        2.05601   0.01086   0.03299   0.00994   0.04293   2.09894
   R13        2.93032  -0.01208   0.01954  -0.10412  -0.08458   2.84574
   R14        2.79422   0.00056   0.01583  -0.01835  -0.00252   2.79170
   R15        2.33875  -0.03116  -0.03811  -0.02603  -0.06414   2.27460
   R16        2.61870  -0.03104  -0.08111  -0.03358  -0.11469   2.50401
   R17        1.90044   0.00666   0.01039   0.01260   0.02300   1.92344
   R18        1.90646   0.00599   0.01623   0.00236   0.01860   1.92506
   R19        1.82740   0.00695   0.01287   0.00701   0.01988   1.84728
    A1        2.10247   0.00514   0.00399   0.03150   0.03549   2.13796
    A2        2.05186  -0.01321  -0.03934  -0.04017  -0.07951   1.97235
    A3        2.12885   0.00807   0.03535   0.00867   0.04402   2.17287
    A4        2.07789  -0.00347  -0.01601  -0.01336  -0.02937   2.04852
    A5        2.10870   0.00456   0.01387   0.02844   0.04231   2.15101
    A6        2.09660  -0.00109   0.00213  -0.01507  -0.01294   2.08366
    A7        1.89197  -0.00245  -0.01811   0.00159  -0.01754   1.87442
    A8        1.90142  -0.00137  -0.00894  -0.00154  -0.01106   1.89036
    A9        1.92236   0.00303   0.01137   0.01828   0.02928   1.95163
   A10        1.89694  -0.00201  -0.01329  -0.03066  -0.04453   1.85241
   A11        1.93363   0.00219   0.02231   0.00580   0.02816   1.96179
   A12        1.91692   0.00046   0.00610   0.00572   0.01192   1.92884
   A13        1.91478   0.00046   0.00402   0.01578   0.01916   1.93394
   A14        1.89254  -0.00071  -0.01756   0.02211   0.00481   1.89734
   A15        1.94441   0.00335   0.03277  -0.00878   0.02351   1.96792
   A16        1.90227  -0.00153  -0.00811  -0.03639  -0.04456   1.85771
   A17        1.90729  -0.00047  -0.00325   0.01032   0.00604   1.91332
   A18        1.90204  -0.00122  -0.00834  -0.00404  -0.01234   1.88970
   A19        1.89268  -0.00052  -0.01742   0.02958   0.00910   1.90178
   A20        1.93519  -0.00321   0.02383  -0.08350  -0.05932   1.87587
   A21        1.94348   0.00513   0.03187   0.00862   0.03907   1.98256
   A22        1.89496  -0.00042  -0.01521  -0.01240  -0.02766   1.86729
   A23        1.92057   0.00122   0.00964   0.04170   0.04982   1.97039
   A24        1.87654  -0.00228  -0.03307   0.01558  -0.01695   1.85960
   A25        2.04011   0.03227   0.16241   0.00501   0.16739   2.20750
   A26        2.17623  -0.04587  -0.13761  -0.13802  -0.27566   1.90057
   A27        2.06685   0.01360  -0.02480   0.13304   0.10822   2.17507
   A28        1.93178   0.00160   0.02052  -0.01572   0.00467   1.93645
   A29        1.92798   0.00213   0.01683  -0.00441   0.01230   1.94028
   A30        1.89571  -0.00207  -0.01448  -0.00412  -0.01883   1.87687
   A31        1.84466  -0.00977  -0.06400  -0.00893  -0.07293   1.77173
    D1       -0.00037  -0.00003  -0.00036  -0.00072  -0.00108  -0.00145
    D2        3.14101  -0.00005  -0.00056  -0.00142  -0.00198   3.13903
    D3       -3.14143  -0.00002   0.00016  -0.00178  -0.00162   3.14013
    D4       -0.00005  -0.00004  -0.00004  -0.00248  -0.00253  -0.00257
    D5       -1.03068   0.00258   0.01843   0.02335   0.04125  -0.98942
    D6        1.03075  -0.00199  -0.01356  -0.01330  -0.02645   1.00430
    D7        3.13434  -0.00042  -0.00464   0.00401  -0.00051   3.13382
    D8        2.11146   0.00259   0.01895   0.02227   0.04070   2.15216
    D9       -2.11030  -0.00198  -0.01303  -0.01438  -0.02700  -2.13730
   D10       -0.00671  -0.00041  -0.00411   0.00293  -0.00106  -0.00778
   D11        1.03940  -0.00105  -0.00841  -0.00132  -0.00983   1.02957
   D12       -1.03638   0.00095   0.00965   0.02045   0.03027  -1.00611
   D13       -3.12948   0.00086   0.01090   0.01655   0.02783  -3.10166
   D14       -1.05374  -0.00137  -0.00719  -0.01889  -0.02662  -1.08036
   D15       -3.12951   0.00063   0.01087   0.00287   0.01347  -3.11604
   D16        1.06057   0.00055   0.01213  -0.00102   0.01103   1.07160
   D17        3.13364  -0.00056  -0.00856   0.01188   0.00322   3.13685
   D18        1.05786   0.00145   0.00950   0.03364   0.04331   1.10118
   D19       -1.03524   0.00136   0.01076   0.02974   0.04087  -0.99437
   D20        1.03628   0.00079  -0.01089   0.00904  -0.00194   1.03434
   D21        3.11522  -0.00196  -0.02589  -0.03734  -0.06325   3.05196
   D22       -1.07931  -0.00359  -0.03145  -0.06770  -0.09935  -1.17865
   D23       -3.12823   0.00322   0.01266   0.03008   0.04276  -3.08547
   D24       -1.04930   0.00047  -0.00234  -0.01630  -0.01855  -1.06785
   D25        1.03937  -0.00116  -0.00790  -0.04666  -0.05465   0.98472
   D26       -1.05120   0.00038  -0.00418  -0.01032  -0.01440  -1.06560
   D27        1.02774  -0.00237  -0.01918  -0.05670  -0.07571   0.95203
   D28        3.11640  -0.00400  -0.02474  -0.08707  -0.11181   3.00459
   D29        0.01335   0.00182   0.01304   0.00274   0.01569   0.02905
   D30       -3.12564   0.00175   0.01556  -0.01286   0.00256  -3.12308
   D31        2.09092  -0.00100  -0.00329  -0.01851  -0.02156   2.06936
   D32       -1.04807  -0.00107  -0.00077  -0.03411  -0.03469  -1.08277
   D33       -2.11493  -0.00106  -0.01984   0.03298   0.01306  -2.10187
   D34        1.02926  -0.00113  -0.01732   0.01737  -0.00007   1.02919
   D35        0.53245   0.00264  -0.00608   0.09156   0.08656   0.61901
   D36        2.63274   0.00249  -0.00036   0.07323   0.07407   2.70681
   D37       -1.56677  -0.00085  -0.01076   0.02106   0.00924  -1.55753
   D38        0.53352  -0.00099  -0.00505   0.00273  -0.00325   0.53027
   D39        2.65557   0.00032   0.02179   0.00383   0.02542   2.68099
   D40       -1.52732   0.00017   0.02750  -0.01449   0.01293  -1.51439
   D41       -3.14070   0.00072   0.00268   0.03586   0.03846  -3.10224
   D42        0.00352   0.00062   0.00524   0.02022   0.02554   0.02906
         Item               Value     Threshold  Converged?
 Maximum Force            0.045866     0.000450     NO 
 RMS     Force            0.009629     0.000300     NO 
 Maximum Displacement     0.579104     0.001800     NO 
 RMS     Displacement     0.123176     0.001200     NO 
 Predicted change in Energy=-1.966659D-02
 GradGradGradGradGradGradGradGradGradGradGradGradGradGradGradGradGradGrad

                          Input orientation:                          
 ---------------------------------------------------------------------
 Center     Atomic      Atomic             Coordinates (Angstroms)
 Number     Number       Type             X           Y           Z
 ---------------------------------------------------------------------
      1          6           0       -1.046326   -0.600704   -0.155788
      2          7           0       -0.535571   -1.831836   -0.091519
      3          8           0       -0.352208    0.390049   -0.193982
      4          6           0       -2.571976   -0.588244   -0.175059
      5          1           0       -2.896070   -1.204423   -1.030802
      6          1           0       -2.934515   -1.105666    0.730352
      7          6           0       -3.130365    0.840886   -0.238152
      8          1           0       -2.769226    1.361080   -1.133632
      9          1           0       -2.751578    1.404574    0.621889
     10          6           0       -4.655857    0.880812   -0.202252
     11          1           0       -5.007443    0.402925    0.736731
     12          6           0       -5.069147    2.327597   -0.141124
     13          7           0       -5.290748    0.312505   -1.409054
     14          8           0       -4.336172    3.282298   -0.151645
     15          8           0       -6.391375    2.394171   -0.085633
     16          1           0        0.471446   -1.916949   -0.076487
     17          1           0       -1.104298   -2.666442   -0.056980
     18          1           0       -6.538329    3.360597   -0.087753
     19          1           0       -4.755611   -0.477079   -1.764273
     20          1           0       -6.232090   -0.020548   -1.207326
 ---------------------------------------------------------------------
                    Distance matrix (angstroms):
                    1          2          3          4          5
     1  C    0.000000
     2  N    1.334424   0.000000
     3  O    1.210310   2.231792   0.000000
     4  C    1.525822   2.387560   2.425857   0.000000
     5  H    2.133466   2.616840   3.116703   1.103181   0.000000
     6  H    2.146040   2.637750   3.124079   1.104052   1.764339
     7  C    2.535386   3.727988   2.814846   1.535640   2.206008
     8  H    2.788038   4.033599   2.769082   2.181200   2.570694
     9  H    2.744778   3.986727   2.729814   2.153766   3.091784
    10  C    3.902020   4.934316   4.331548   2.549790   2.851587
    11  H    4.182620   5.067326   4.747379   2.783034   3.188360
    12  C    4.975766   6.152776   5.099647   3.839160   4.241339
    13  N    4.518821   5.380131   5.086412   3.118624   2.859831
    14  O    5.089284   6.372013   4.923298   4.253709   4.793483
    15  O    6.127295   7.221468   6.363943   4.846711   5.104937
    16  H    2.010578   1.010720   2.452438   3.322287   3.571915
    17  H    2.068912   1.010550   3.150643   2.546945   2.509238
    18  H    6.771900   7.936905   6.863200   5.597582   5.915640
    19  H    4.044911   4.737321   4.754754   2.703003   2.127182
    20  H    5.323012   6.080799   5.980675   3.845035   3.544256
                    6          7          8          9         10
     6  H    0.000000
     7  C    2.182985   0.000000
     8  H    3.096222   1.096771   0.000000
     9  H    2.519234   1.095854   1.756148   0.000000
    10  C    2.789062   1.526437   2.158125   2.140050   0.000000
    11  H    2.563771   2.160007   3.070168   2.470914   1.110710
    12  C    4.135628   2.445118   2.684933   2.608694   1.505899
    13  N    3.484265   2.513455   2.744711   3.429975   1.477305
    14  O    4.690074   2.724326   2.666589   2.575877   2.423200
    15  O    4.986439   3.615266   3.909673   3.837709   2.305619
    16  H    3.593013   4.539254   4.729163   4.680613   5.842305
    17  H    2.530930   4.054518   4.489109   4.443824   5.021721
    18  H    5.796920   4.240965   4.392956   4.320775   3.115468
    19  H    3.151931   2.589884   2.778896   3.640129   2.072132
    20  H    3.975686   3.361855   3.729042   4.182221   2.075364
                   11         12         13         14         15
    11  H    0.000000
    12  C    2.116317   0.000000
    13  N    2.166294   2.391098   0.000000
    14  O    3.087168   1.203668   3.363326   0.000000
    15  O    2.560588   1.325065   2.701140   2.239863   0.000000
    16  H    6.005112   6.979866   6.320529   7.081739   8.104576
    17  H    5.028472   6.377110   5.313059   6.770634   7.318730
    18  H    3.430919   1.796784   3.548684   2.204474   0.977537
    19  H    2.663240   3.255630   1.017838   4.112106   3.706431
    20  H    2.336332   2.828959   1.018697   3.951932   2.667290
                   16         17         18         19         20
    16  H    0.000000
    17  H    1.745019   0.000000
    18  H    8.774370   8.115099   0.000000
    19  H    5.678378   4.586965   4.551544   0.000000
    20  H    7.057800   5.883732   3.574824   1.642742   0.000000
 Stoichiometry    C5H10N2O3
 Framework group  C1[X(C5H10N2O3)]
 Deg. of freedom    54
 Full point group                 C1      NOp   1
 Largest Abelian subgroup         C1      NOp   1
 Largest concise Abelian subgroup C1      NOp   1
                         Standard orientation:                         
 ---------------------------------------------------------------------
 Center     Atomic      Atomic             Coordinates (Angstroms)
 Number     Number       Type             X           Y           Z
 ---------------------------------------------------------------------
      1          6           0       -2.654331   -0.214485    0.005795
      2          7           0       -3.762637    0.499008    0.213812
      3          8           0       -2.682777   -1.379495   -0.320999
      4          6           0       -1.376874    0.591164    0.222974
      5          1           0       -1.422787    1.468500   -0.444244
      6          1           0       -1.388128    0.988193    1.253106
      7          6           0       -0.119389   -0.258174   -0.012711
      8          1           0       -0.105728   -0.659083   -1.033491
      9          1           0       -0.148176   -1.122964    0.659752
     10          6           0        1.171507    0.511899    0.252968
     11          1           0        1.172021    0.862963    1.306737
     12          6           0        2.314310   -0.458593    0.111973
     13          7           0        1.421164    1.599404   -0.715245
     14          8           0        2.232752   -1.621574   -0.187428
     15          8           0        3.450170    0.177076    0.360056
     16          1           0       -4.648447    0.029160    0.086780
     17          1           0       -3.752059    1.471339    0.488900
     18          1           0        4.107329   -0.529590    0.204028
     19          1           0        0.549274    2.041296   -0.999031
     20          1           0        2.014514    2.322375   -0.311524
 ---------------------------------------------------------------------
 Rotational constants (GHZ):      3.1410337      0.5725385      0.5035685
 Standard basis: 6-31G(d) (6D, 7F)
 There are   170 symmetry adapted cartesian basis functions of A   symmetry.
 There are   170 symmetry adapted basis functions of A   symmetry.
   170 basis functions,   320 primitive gaussians,   170 cartesian basis functions
    39 alpha electrons       39 beta electrons
       nuclear repulsion energy       540.1627547834 Hartrees.
 NAtoms=   20 NActive=   20 NUniq=   20 SFac= 1.00D+00 NAtFMM=   60 NAOKFM=F Big=F
 Integral buffers will be    131072 words long.
 Raffenetti 2 integral format.
 Two-electron integral symmetry is turned on.
 One-electron integrals computed using PRISM.
 NBasis=   170 RedAO= T EigKep=  2.04D-03  NBF=   170
 NBsUse=   170 1.00D-06 EigRej= -1.00D+00 NBFU=   170
 Initial guess from the checkpoint file:  "glutamine.chk"
 B after Tr=     0.000000    0.000000    0.000000
         Rot=    0.999954    0.005958    0.002290    0.007102 Ang=   1.09 deg.
 ExpMin= 1.61D-01 ExpMax= 5.48D+03 ExpMxC= 8.25D+02 IAcc=1 IRadAn=         1 AccDes= 0.00D+00
 Harris functional with IExCor=  402 and IRadAn=       1 diagonalized for initial guess.
 HarFok:  IExCor=  402 AccDes= 0.00D+00 IRadAn=         1 IDoV= 1 UseB2=F ITyADJ=14
 ICtDFT=  3500011 ScaDFX=  1.000000  1.000000  1.000000  1.000000
 FoFCou: FMM=F IPFlag=           0 FMFlag=      100000 FMFlg1=           0
         NFxFlg=           0 DoJE=T BraDBF=F KetDBF=T FulRan=T
         wScrn=  0.000000 ICntrl=     500 IOpCl=  0 I1Cent=   200000004 NGrid=           0
         NMat0=    1 NMatS0=      1 NMatT0=    0 NMatD0=    1 NMtDS0=    0 NMtDT0=    0
 Petite list used in FoFCou.
 Requested convergence on RMS density matrix=1.00D-08 within 128 cycles.
 Requested convergence on MAX density matrix=1.00D-06.
 Requested convergence on             energy=1.00D-06.
 No special actions if energy rises.
 Integral accuracy reduced to 1.0D-05 until final iterations.
 Initial convergence to 1.0D-05 achieved.  Increase integral accuracy.
 SCF Done:  E(RB3LYP) =  -531.735329708     A.U. after   13 cycles
            NFock= 13  Conv=0.69D-08     -V/T= 2.0085
 Calling FoFJK, ICntrl=      2127 FMM=F ISym2X=0 I1Cent= 0 IOpClX= 0 NMat=1 NMatS=1 NMatT=0.
 ***** Axes restored to original set *****
 -------------------------------------------------------------------
 Center     Atomic                   Forces (Hartrees/Bohr)
 Number     Number              X              Y              Z
 -------------------------------------------------------------------
      1        6          -0.021008848    0.006295100   -0.000398828
      2        7           0.016120408   -0.029937204    0.001479083
      3        8           0.010061742    0.019106624   -0.000635796
      4        6          -0.003707825    0.005662631   -0.000063712
      5        1          -0.000349765    0.001912385    0.001779294
      6        1           0.000046946    0.001396566   -0.002337348
      7        6           0.001904265   -0.011040136   -0.000958677
      8        1          -0.000120898   -0.001662714    0.001806932
      9        1           0.000096894   -0.000275968   -0.002827119
     10        6           0.007737846   -0.006781743    0.000198359
     11        1           0.001041708    0.000367785   -0.003114611
     12        6           0.011014732   -0.020438969   -0.000753749
     13        7           0.003177552   -0.001673288   -0.000522223
     14        8           0.002293341    0.014541834    0.000879501
     15        8          -0.020302719    0.021185705    0.002418150
     16        1          -0.000065655   -0.002740558    0.000176356
     17        1           0.002097695    0.001161996   -0.000006557
     18        1          -0.011203619    0.000693029    0.000267065
     19        1          -0.000894906    0.000138676    0.002540126
     20        1           0.002061106    0.002088249    0.000073753
 -------------------------------------------------------------------
 Cartesian Forces:  Max     0.029937204 RMS     0.008382684

 GradGradGradGradGradGradGradGradGradGradGradGradGradGradGradGradGradGrad
 Berny optimization.
 Using GEDIIS/GDIIS optimizer.
 FormGI is forming the generalized inverse of G from B-inverse, IUseBI=4.
 Internal  Forces:  Max     0.036111504 RMS     0.007305956
 Search for a local minimum.
 Step number   3 out of a maximum of  102
 All quantities printed in internal units (Hartrees-Bohrs-Radians)
 Mixed Optimization -- RFO/linear search
 Update second derivatives using D2CorX and points    2    3
 DE= -1.16D-02 DEPred=-1.97D-02 R= 5.90D-01
 TightC=F SS=  1.41D+00  RLast= 5.26D-01 DXNew= 8.4853D-01 1.5795D+00
 Trust test= 5.90D-01 RLast= 5.26D-01 DXMaxT set to 8.49D-01
 ITU=  1  1  0
 Use linear search instead of GDIIS.
     Eigenvalues ---    0.00237   0.00237   0.00237   0.00237   0.00443
     Eigenvalues ---    0.00493   0.00763   0.00766   0.00766   0.01295
     Eigenvalues ---    0.03410   0.03956   0.04012   0.04606   0.04708
     Eigenvalues ---    0.05083   0.05187   0.06603   0.08303   0.09302
     Eigenvalues ---    0.12205   0.12729   0.15670   0.16000   0.16000
     Eigenvalues ---    0.16022   0.16296   0.16974   0.18370   0.21220
     Eigenvalues ---    0.21976   0.22552   0.25000   0.25224   0.26930
     Eigenvalues ---    0.28516   0.28519   0.28801   0.35074   0.36624
     Eigenvalues ---    0.37106   0.37229   0.37230   0.37230   0.37793
     Eigenvalues ---    0.39113   0.45953   0.47549   0.47688   0.47713
     Eigenvalues ---    0.47933   0.55372   0.78977   0.81980
 RFO step:  Lambda=-5.69034674D-03 EMin= 2.36559207D-03
 Quartic linear search produced a step of -0.30814.
 Iteration  1 RMS(Cart)=  0.08802276 RMS(Int)=  0.00170396
 Iteration  2 RMS(Cart)=  0.00343033 RMS(Int)=  0.00017570
 Iteration  3 RMS(Cart)=  0.00000383 RMS(Int)=  0.00017569
 Iteration  4 RMS(Cart)=  0.00000000 RMS(Int)=  0.00017569
 Variable       Old X    -DE/DX   Delta X   Delta X   Delta X     New X
                                 (Linear)    (Quad)   (Total)
    R1        2.52170   0.03611   0.04759   0.02415   0.07174   2.59344
    R2        2.28716   0.02143   0.01447   0.00689   0.02137   2.30852
    R3        2.88339   0.00725   0.00351   0.01405   0.01757   2.90095
    R4        1.90998   0.00017  -0.00366   0.00342  -0.00024   1.90975
    R5        1.90966  -0.00214  -0.00333  -0.00021  -0.00354   1.90612
    R6        2.08471  -0.00234  -0.01193   0.00674  -0.00518   2.07953
    R7        2.08636  -0.00259  -0.01117   0.00530  -0.00588   2.08048
    R8        2.90194  -0.00148   0.00598  -0.01044  -0.00445   2.89749
    R9        2.07260  -0.00230  -0.00982   0.00494  -0.00489   2.06771
   R10        2.07086  -0.00233  -0.00955   0.00466  -0.00489   2.06598
   R11        2.88455   0.00537   0.01160  -0.00038   0.01121   2.89576
   R12        2.09894  -0.00312  -0.01323   0.00612  -0.00710   2.09183
   R13        2.84574   0.02047   0.02606   0.01920   0.04526   2.89100
   R14        2.79170  -0.00379   0.00078  -0.00883  -0.00806   2.78364
   R15        2.27460   0.01293   0.01976  -0.00571   0.01405   2.28866
   R16        2.50401   0.03264   0.03534   0.02231   0.05765   2.56166
[...]
 01646617,0.61890402,0.00138572,0.00029652,-0.00075398,-0.00008610,-0.0
 0013391,0.00029185,-0.00048016,-0.00038861,0.00027454,0.00299383,0.003
 79834,-0.01072764,0.00028348,-0.00057556,0.00044564,-0.00022584,0.0024
 6863,-0.00020981,-0.07327773,-0.02702589,0.06803897,0.08093597,-0.0023
 9393,-0.00004552,0.00022232,0.00046296,0.00005018,-0.00050737,0.000440
 81,0.00057420,0.00027059,-0.00807408,-0.01327271,0.02856305,-0.0007195
 4,0.00140578,-0.00030499,0.00268782,-0.00576561,0.00094481,-0.02741894
 ,-0.07943662,0.07927438,0.02555399,0.08821575,0.00098583,0.00062472,0.
 00009178,-0.00050747,0.00009137,0.00009475,-0.00090744,-0.00038391,0.0
 0019611,-0.00023705,0.00057200,-0.00176994,-0.00034808,0.00030837,0.00
 091133,-0.00021228,-0.00005506,0.00142161,0.07072514,0.07970031,-0.258
 95186,-0.07802765,-0.08902453,0.27715716,0.00060396,0.00249760,0.00238
 581,0.00002173,-0.00119194,-0.00103909,-0.00150299,-0.00063596,-0.0006
 0153,0.00472557,0.00636406,0.00879558,-0.00112913,0.00298658,-0.000438
 02,0.00022369,-0.00051091,-0.00028884,-0.09406198,-0.06535267,-0.07650
 146,0.00480387,0.00716374,0.00791961,0.10427454,-0.00248226,-0.0023698
 4,-0.00349145,0.00003613,0.00090909,0.00052329,-0.00046473,0.00265361,
 0.00186598,-0.00996091,-0.02155465,-0.02277628,0.00221622,-0.00538554,
 0.00148098,-0.00043404,0.00093074,0.00017531,-0.06514034,-0.13640352,-
 0.11070516,0.00570212,0.00726863,0.00839428,0.06802409,0.15241856,-0.0
 0155840,-0.00103751,-0.00033606,0.00010712,-0.00017935,-0.00003341,-0.
 00023682,0.00164643,-0.00031519,0.00358244,0.00224581,0.00371094,-0.00
 088182,0.00132920,0.00113985,0.00048477,-0.00036776,0.00064023,-0.0769
 2370,-0.10964407,-0.18832152,-0.01192724,-0.01637357,-0.01945061,0.084
 52623,0.12051418,0.19946759,-0.00141918,0.00084440,0.00063345,0.000897
 13,-0.00073156,-0.00046065,0.00116512,-0.00070913,0.00026153,-0.013079
 33,0.00746627,-0.00067958,0.00076012,-0.00189288,-0.00052242,0.0009675
 7,-0.00152394,0.00086024,-0.18097518,0.00794725,0.01650016,-0.01375167
 ,0.00046458,0.00081770,-0.01215305,-0.00014405,0.00223785,0.52162647,-
 0.00242108,-0.00812751,-0.00126285,0.00285557,0.00007858,0.00018622,0.
 00021567,0.00174799,0.00026911,0.03559442,-0.00310019,0.00054234,0.000
 08764,-0.00030492,-0.00087669,0.00015197,0.00180705,-0.00031761,0.0043
 1718,-0.08185127,-0.00154050,-0.00994468,0.00063888,-0.00070358,-0.018
 95569,0.00153000,0.00364417,-0.00336628,0.49596310,-0.00067552,0.00082
 537,-0.00042005,-0.00042234,0.00004276,0.00001354,-0.00065681,0.000436
 17,0.00004059,-0.00440037,0.00076488,-0.00117883,0.00089802,-0.0009891
 1,-0.00045555,-0.00181164,0.00094818,0.00068104,0.01282008,-0.00167704
 ,-0.08068564,0.03252648,-0.00286219,-0.00302787,-0.02469249,0.00236257
 ,0.00135596,-0.01403721,-0.01567908,0.50310489,0.00003096,-0.00047499,
 -0.00039445,0.00011798,0.00006685,-0.00001115,0.00003588,0.00029094,-0
 .00008155,0.00173814,-0.00152127,0.00066000,-0.00001743,0.00011961,-0.
 00001996,0.00028567,0.00095328,-0.00083354,-0.01395871,-0.01063534,0.0
 3137965,-0.00671641,0.00107950,0.00046250,0.00114348,-0.00025461,-0.00
 043447,-0.07074570,-0.01813965,0.06121195,0.07883731,0.00010291,0.0000
 5908,0.00007972,-0.00007144,0.00002188,0.00001166,-0.00003788,-0.00002
 766,-0.00001898,0.00008653,0.00088909,-0.00148558,0.00001837,0.0000049
 9,-0.00002888,-0.00034499,0.00014666,0.00031170,0.00110161,0.00156116,
 -0.00231525,0.00067316,0.00045181,-0.00042040,-0.00022138,0.00021995,0
 .00037303,-0.01763137,-0.07433367,0.06731292,0.02337791,0.07760381,0.0
 0001252,-0.00016963,0.00028150,-0.00007078,0.00003435,0.00004384,0.000
 06311,0.00000333,0.00007213,-0.00060669,-0.00021962,0.00022104,-0.0001
 5999,0.00024470,0.00010766,0.00048987,-0.00083682,0.00020705,0.0019685
 8,0.00251294,-0.00278167,0.00025796,0.00002461,0.00108279,0.00062145,0
 .00013045,0.00050639,0.06438683,0.06284367,-0.22535500,-0.06559727,-0.
 06381812,0.25968838,-0.00072360,0.00328587,0.00092013,0.00019479,-0.00
 102076,-0.00029498,0.00038011,-0.00139363,-0.00029885,-0.00644910,-0.0
 0134447,0.00023463,0.00034636,-0.00093723,-0.00010958,0.00024130,-0.00
 073285,0.00012980,-0.01311815,0.03478996,-0.00438776,-0.00026421,0.001
 13289,0.00114858,-0.00163089,0.00076097,-0.00165244,-0.08782555,0.0434
 3092,-0.00066275,0.00310550,-0.01384106,0.00343724,0.70265477,0.003036
 82,0.00119982,0.00027804,-0.00163441,0.00046499,0.00010275,-0.00184486
 ,-0.00046816,-0.00054522,-0.00482945,-0.00131462,-0.00051216,0.0003564
 0,-0.00048847,0.00006596,0.00038862,-0.00059944,0.00012103,0.01604088,
 -0.00209127,0.00245876,-0.00272283,0.00095338,0.00216005,-0.00191563,0
 .00042568,-0.00193765,0.02527826,-0.15950577,0.00646359,0.00218697,-0.
 00899445,0.00453366,0.20520418,0.89295614,-0.00030664,0.00012671,0.000
 61829,0.00012279,-0.00014020,-0.00013980,0.00010943,-0.00017956,-0.000
 12732,0.00023081,0.00031072,0.00013436,-0.00020652,-0.00002998,0.00008
 663,-0.00000358,-0.00042439,0.00032772,0.00080458,-0.00342729,-0.00114
 295,0.00101151,-0.00104803,0.00031327,-0.00120444,0.00062800,-0.000053
 88,-0.00155229,0.01395678,-0.08860439,-0.00878643,0.03320274,-0.005276
 07,0.07535059,0.02073794,0.23901134,0.00148053,-0.00178958,-0.00078742
 ,-0.00051566,0.00073248,0.00020456,-0.00130273,0.00083639,-0.00006761,
 0.00043578,-0.00048879,0.00055590,-0.00046519,-0.00059064,-0.00062394,
 0.00002447,0.00016359,-0.00040190,-0.02071399,-0.02267859,-0.03156125,
 0.00324810,0.00019361,-0.00033835,-0.00699006,0.00134404,0.00011403,-0
 .11099547,-0.01666579,-0.06515715,0.00491889,0.00103796,-0.00292271,0.
 00368794,-0.00321044,0.00825199,0.58930896,-0.00026487,0.00000054,-0.0
 0010658,-0.00000381,-0.00000820,0.00001854,0.00027929,0.00010196,0.000
 13692,0.00021741,0.00037553,0.00081166,-0.00043584,0.00073498,-0.00022
 013,0.00019664,0.00002748,0.00003461,-0.00196393,0.00384341,0.00218433
 ,0.00050337,-0.00043077,-0.00000914,0.00236123,0.00023319,-0.00049268,
 -0.00726075,-0.12310399,-0.07096901,0.00035129,0.00473086,-0.00594993,
 -0.01792957,-0.02536932,-0.02998866,-0.07049475,0.61933263,0.00080154,
 -0.00078076,-0.00020980,-0.00048919,0.00043425,0.00028494,-0.00032105,
 0.00054058,0.00021853,0.00019477,-0.00117463,-0.00051568,-0.00005176,0
 .00044344,0.00034483,0.00020271,-0.00032537,-0.00013387,-0.00766311,-0
 .00290998,-0.00152382,-0.00039012,0.00041079,0.00153506,0.00043826,0.0
 0052871,0.00058171,-0.02908607,-0.03193418,-0.13204025,-0.02015861,-0.
 02605377,-0.03258167,0.00031539,-0.00300405,0.00117943,0.10368914,0.00
 195270,0.23036221,0.00066620,-0.00101814,-0.00041175,-0.00035736,0.000
 53708,0.00015020,-0.00017321,0.00060999,0.00008552,0.00142355,0.000662
 63,0.00026958,-0.00024798,0.00078640,0.00009490,-0.00018913,0.00044845
 ,-0.00016461,-0.00231513,0.00133306,-0.00095103,0.00086427,-0.00030603
 ,-0.00130020,0.00136497,0.00085935,0.00181055,0.00693867,-0.00743366,0
 .00008446,0.00041734,0.00172740,-0.00102277,-0.32754293,-0.30844551,-0
 .03597769,0.00138550,0.00137514,0.00041852,0.39376139,-0.00195419,-0.0
 0040202,-0.00034733,0.00084136,-0.00019394,-0.00004180,0.00117811,0.00
 037709,0.00041963,0.00106685,0.00061327,-0.00003623,-0.00015529,0.0001
 0395,0.00006531,-0.00013038,0.00023665,-0.00017238,-0.00473438,-0.0000
 1619,0.00018510,0.00095683,-0.00027887,-0.00078946,0.00093739,-0.00140
 363,0.00013957,-0.02669929,-0.03199959,-0.00183213,0.00108280,-0.00461
 807,0.00062013,-0.29639964,-0.55493881,-0.04029255,0.00326254,-0.00710
 504,0.00097383,0.37226057,0.58469981,0.00001051,-0.00020030,-0.0002648
 4,-0.00005892,0.00008891,0.00011805,0.00000771,0.00013187,0.00016981,-
 0.00004522,0.00002379,0.00061464,0.00001581,0.00019382,-0.00002149,0.0
 0006304,-0.00009807,-0.00004517,-0.00120638,0.00083464,-0.00144464,-0.
 00033462,0.00038998,0.00051636,0.00086141,0.00016459,0.00040395,0.0004
 4541,0.00035139,0.02316076,0.00082632,-0.00445790,0.00010104,-0.035361
 20,-0.04101713,-0.08001782,-0.00211818,0.00358905,-0.00129194,0.050378
 84,0.04947564,0.03671878,0.00172358,-0.00041395,-0.00029690,-0.0010406
 1,0.00080272,0.00018366,-0.00070522,0.00051712,-0.00004590,-0.00143479
 ,-0.00060332,0.00005292,-0.00008238,0.00054095,0.00016297,0.00006183,0
 .00007036,-0.00010658,0.00179592,0.00287069,-0.00043994,0.00000844,-0.
 00036244,-0.00027792,0.00110893,-0.00064035,0.00075584,-0.01965065,0.0
 0630675,-0.00665299,-0.00072777,0.00250136,-0.00002211,-0.25150609,0.0
 1042077,-0.02864863,-0.00059797,0.00102275,0.00073037,-0.08419215,-0.0
 4336533,-0.01652417,0.41163022,-0.00163184,-0.00079360,-0.00014194,0.0
 0091832,-0.00030303,-0.00006019,0.00082257,0.00020088,0.00026942,0.003
 24117,0.00083453,-0.00002246,-0.00012154,0.00003671,-0.00004410,-0.000
 16474,0.00022398,-0.00000698,-0.00160622,-0.00706792,0.00074600,0.0003
 1969,-0.00012264,-0.00051782,0.00005274,-0.00006351,0.00043068,0.03849
 287,-0.00637251,0.00477594,0.00043556,0.00001597,-0.00009299,0.0425251
 6,-0.13451245,0.00885551,0.00149249,-0.00354881,-0.00073243,-0.0586710
 9,0.01802689,-0.00871304,-0.07048764,0.59358489,0.00029637,-0.00003415
 ,-0.00012654,-0.00020882,0.00013562,0.00007691,-0.00010094,0.00010944,
 0.00005539,-0.00034939,-0.00018084,0.00003913,-0.00002590,0.00014893,0
 .00003812,0.00001316,0.00001792,-0.00003266,0.00077515,0.00109460,0.00
 080142,-0.00027291,-0.00004486,-0.00008664,0.00016270,-0.00001675,0.00
 005475,-0.00801856,0.00183242,0.00680826,0.00063313,-0.00180802,0.0009
 2636,-0.03084526,0.00283893,-0.06745419,-0.00025153,-0.00048694,0.0010
 6491,-0.01641122,-0.00583910,0.02701129,0.06029337,-0.02723093,0.05079
 455,-0.01784926,-0.00035974,-0.00074938,-0.45130040,0.01273634,-0.0319
 3416,0.00267439,-0.00271241,-0.00141860,0.00117545,0.00365277,0.000690
 58,0.00065090,-0.00023876,-0.00006539,-0.00021650,-0.00006175,0.000182
 43,-0.00093611,-0.00051940,0.00035417,-0.00000806,0.00000184,-0.000036
 86,-0.00008600,0.00012681,0.00000206,0.00006872,0.00043077,-0.00000685
 ,0.00001923,-0.00001013,0.00000382,-0.00014161,-0.00006662,-0.00000903
 ,0.00005321,-0.00000943,0.00000513,0.00003234,0.00000680,0.00000495,-0
 .00000336,0.00004591,-0.00000361,0.47076318,0.03365620,0.00443570,0.00
 572359,0.00373969,-0.04352486,-0.03434354,-0.00526622,0.00017721,0.004
 05057,0.00146090,-0.00084083,-0.00544979,-0.00033336,0.00002635,0.0001
 4030,0.00122491,-0.00034674,-0.00005595,0.00050899,0.00024342,-0.00005
 675,0.00002726,-0.00009913,0.00007219,0.00003579,0.00000692,-0.0000257
 3,0.00011058,-0.00027305,0.00007994,-0.00007970,0.00000895,0.00003785,
 0.00017675,0.00011294,0.00004037,-0.00006305,-0.00001349,0.00001627,-0
 .00008881,-0.00006701,0.00000002,-0.00005367,-0.00003719,-0.00000098,-
 0.01552704,0.03957651,0.01789737,0.00711844,0.00678108,-0.02008348,-0.
 03611213,-0.04092899,-0.00306489,0.00238016,-0.00391043,-0.00074460,-0
 .00592642,0.00257772,0.00014431,0.00036058,0.00039228,-0.00086703,0.00
 050380,0.00000396,0.00146263,0.00061680,0.00018891,-0.00002837,0.00002
 492,-0.00002186,-0.00005021,0.00004195,-0.00004445,-0.00018069,-0.0005
 3773,0.00006708,0.00005206,0.00000749,-0.00004416,0.00001103,0.0001662
 3,-0.00003511,0.00004491,0.00001177,0.00000424,0.00005748,-0.00005308,
 -0.00001514,0.00013906,-0.00011236,0.00001572,0.02861758,0.02452666,0.
 03509544,0.01564850,0.00192479,0.01110755,-0.15400077,-0.08480952,-0.1
 2876767,0.00039401,0.00640562,0.00244997,-0.00061494,0.00046109,0.0013
 6575,-0.00209309,0.00086289,-0.00030925,-0.00023719,0.00014184,-0.0001
 4447,-0.00022298,-0.00056286,-0.00064591,0.00006249,0.00000196,0.00006
 728,0.00042357,-0.00028647,0.00017021,-0.00005276,-0.00000660,0.000100
 88,-0.00000493,-0.00000339,-0.00002679,-0.00003151,0.00017129,-0.00001
 982,0.00007030,-0.00002783,-0.00003975,0.00001652,-0.00013267,0.000008
 12,0.00005723,-0.00007663,0.00000737,-0.00487123,-0.01954047,-0.023404
 01,0.14557985,-0.01911770,-0.01428460,-0.01152415,-0.08417892,-0.14758
 525,-0.18076978,0.00542672,-0.00107068,-0.00562997,-0.00076316,-0.0011
 0930,0.00089964,0.00123437,0.00086188,0.00045408,-0.00061244,0.0005722
 1,0.00058562,0.00016789,-0.00007954,0.00014580,0.00005796,-0.00014682,
 0.00003065,-0.00011125,0.00018185,-0.00000103,0.00013372,0.00005596,0.
 00000410,-0.00003579,0.00000058,0.00001540,0.00018990,-0.00016091,-0.0
 0000330,-0.00018047,0.00001035,-0.00001289,-0.00010788,0.00008395,0.00
 001662,-0.00018317,0.00009518,-0.00001664,0.00249755,0.00062271,0.0069
 8124,0.09546602,0.16189418,-0.01035435,0.00339050,-0.01167942,-0.13455
 396,-0.19387485,-0.23303635,0.00208573,-0.00517331,0.00368312,-0.00009
 665,0.00145356,-0.00072961,0.00028606,0.00011311,0.00110697,0.00034062
 ,-0.00032124,-0.00018773,-0.00001717,-0.00029319,0.00041191,-0.0000427
 9,0.00015971,-0.00007800,-0.00012022,0.00023940,0.00007338,0.00007626,
 0.00024967,0.00003506,0.00002960,-0.00001734,-0.00003448,-0.00004763,-
 0.00012477,0.00002793,0.00003005,-0.00004495,-0.00010814,-0.00000029,0
 .00008318,-0.00002033,-0.00003461,0.00006296,-0.00002756,0.00435935,0.
 00529038,-0.00014457,0.13804151,0.18880308,0.24061101,-0.00008120,0.00
 035908,0.00010601,0.00001501,-0.00011334,-0.00002451,0.00005885,-0.000
 13431,-0.00001881,-0.00060593,-0.00015261,-0.00001880,0.00000008,-0.00
 001961,0.00001689,0.00002107,-0.00006463,0.00001444,0.00025429,0.00177
 424,-0.00036388,-0.00004724,0.00003805,0.00012581,-0.00008058,0.000033
 41,-0.00015344,-0.00715878,-0.00174977,-0.00129457,0.00006750,-0.00001
 754,-0.00021582,-0.01576866,0.06199820,-0.00546792,0.00030966,-0.00163
 104,-0.00048425,0.00705106,-0.00686675,0.00236732,-0.05696855,0.040254
 34,-0.00718411,-0.00001788,0.00002380,-0.00000017,-0.00000985,0.000025
 84,-0.00000855,0.07232704,0.00002021,-0.00010928,-0.00003249,-0.000005
 71,0.00002632,0.00001354,-0.00003057,0.00004020,0.00000383,0.00021815,
 0.00012687,0.00003163,-0.00001235,0.00002708,0.00000058,-0.00000920,0.
 00001414,-0.00001199,-0.00041326,-0.00027156,0.00022078,0.00003798,-0.
 00002412,-0.00003766,0.00012189,0.00000050,0.00005125,0.00096495,0.002
 22032,-0.00088453,-0.00027503,-0.00007211,0.00034140,0.01248134,-0.009
 04286,0.00253951,-0.00002081,0.00047296,0.00019231,-0.00690776,-0.0021
 0137,-0.00130601,0.08830734,-0.45768192,0.02931214,0.00000506,-0.00000
 757,-0.00000052,0.00000693,-0.00000544,-0.00000075,-0.09451265,0.46620
 890,0.00000324,0.00011749,0.00003588,0.00001402,-0.00002528,-0.0000443
 4,0.00000055,-0.00003353,-0.00004977,-0.00014044,-0.00008548,0.0000110
 5,0.00000128,-0.00000962,0.00000221,0.00000144,0.00004584,-0.00004077,
 0.00009876,0.00070319,0.00032868,0.00002972,-0.00000743,-0.00001605,-0
 .00000340,0.00000351,-0.00004654,-0.00312095,-0.00056186,0.00508466,0.
 00045130,-0.00105721,0.00013281,-0.00289455,0.00984198,0.00393756,-0.0
 0012340,-0.00008828,-0.00035206,0.00234922,-0.00122429,-0.00637907,-0.
 00953334,0.02256944,-0.01942339,-0.00000386,-0.00000607,0.00001664,-0.
 00000170,-0.00000687,0.00001235,0.01200981,-0.03067455,0.01659698,-0.0
 0156701,0.00040977,0.00006775,0.00037504,-0.00023666,-0.00003827,0.000
 99516,0.00041679,0.00045688,0.00013913,-0.00083553,-0.00128818,-0.0019
 6890,0.00110911,0.00064596,-0.00007345,0.00002892,-0.00020417,0.000642
 21,-0.00097746,0.00033378,-0.00010733,-0.00002223,-0.00007809,-0.00000
 292,0.00033102,-0.00008707,0.00260311,-0.01766322,0.00639943,0.0003293
 1,0.00072581,-0.00092853,-0.00372336,0.00058212,-0.00293949,-0.0562180
 6,0.01028054,-0.02102431,0.00052884,-0.00169425,0.00056844,0.00047154,
 0.00112467,0.00058325,-0.00001202,-0.00000231,-0.00001164,-0.00010747,
 0.00010413,0.00002294,0.00021338,-0.00008693,0.00035830,0.05949832,-0.
 00050765,0.00027759,0.00009795,0.00014163,-0.00012846,-0.00001135,0.00
 034526,0.00008178,0.00012871,0.00043809,-0.00016685,-0.00030673,0.0006
 4552,0.00043192,0.00041146,-0.00007304,0.00006296,0.00003706,-0.000046
 93,-0.00049841,-0.00018695,0.00006019,-0.00003790,-0.00010782,0.000023
 76,0.00002748,-0.00009487,0.00175500,-0.02028629,0.00823305,0.00094616
 ,0.00227529,0.00034784,-0.00260236,0.00074820,-0.00324048,0.03904392,-
 0.39492421,0.06899943,-0.00000512,-0.00160182,0.00038307,0.00025113,-0
 .00027598,0.00008597,-0.00000274,-0.00000281,-0.00001018,0.00000337,0.
 00005924,0.00000164,-0.00018251,0.00020062,-0.00003603,-0.03647926,0.4
 2215790,-0.00022670,0.00018093,-0.00034019,0.00022628,-0.00014630,-0.0
 0009523,-0.00001480,-0.00014449,-0.00002613,-0.00033354,0.00060700,0.0
 0129890,0.00026660,-0.00055617,-0.00006328,-0.00015953,0.00017857,-0.0
 0062255,0.00045867,0.00077146,0.00066729,0.00002414,0.00014758,-0.0000
 3221,0.00023891,-0.00012032,-0.00014221,0.00233248,-0.03556243,-0.0011
 2770,0.00116735,-0.00015556,0.00237806,-0.00473954,-0.00178219,-0.0051
 1834,-0.03205341,0.11790206,-0.04779736,0.00024950,-0.00194963,0.00097
 189,0.00090143,0.00007156,0.00091876,0.00001114,-0.00003709,0.00000376
 ,0.00008044,-0.00001443,0.00006378,-0.00002274,-0.00000244,-0.00004124
 ,0.02722082,-0.07965554,0.05260406,0.00009910,-0.00021909,-0.00016323,
 -0.00008110,0.00012439,0.00005903,-0.00015211,0.00020976,0.00004372,0.
 00038253,-0.00049920,0.00005774,0.00003011,0.00002530,0.00006918,-0.00
 004096,0.00005667,-0.00009847,-0.00018870,-0.00281674,-0.00412311,0.00
 037858,0.00007546,0.00001895,-0.00105669,0.00037360,0.00006429,-0.0172
 1958,0.00295555,0.00642941,0.00112376,0.00082616,0.00033207,-0.0018851
 1,-0.00099475,-0.00075921,-0.40712420,0.08343416,-0.02708761,0.0005672
 3,0.00053891,0.00009081,0.00005184,0.00303422,0.00090777,0.00000501,-0
 .00001024,0.00000868,-0.00000575,-0.00001331,0.00000409,0.00042073,0.0
 0011044,0.00050398,-0.00201552,-0.00375442,0.00437251,0.42671083,-0.00
 012796,0.00000285,-0.00002202,-0.00008395,0.00005163,0.00002399,0.0000
 3768,0.00025622,0.00012017,0.00068437,-0.00061140,-0.00038357,0.000000
 20,0.00029413,0.00043609,-0.00005627,0.00002253,-0.00010435,-0.0016951
 2,-0.00370326,-0.00431487,0.00033542,0.00010209,0.00009543,-0.00167343
 ,0.00037451,-0.00022008,-0.02349863,0.00521688,0.00264364,0.00052552,0
 .00005589,-0.00060323,-0.00777637,0.00062538,-0.00162384,0.06807591,-0
 .07536006,-0.00756426,0.00238393,0.00058474,0.00014906,0.00249794,-0.0
 0223946,0.00008327,0.00000419,0.00000197,0.00001239,0.00000065,0.00000
 445,0.00000322,0.00093779,-0.00002168,0.00053506,0.04288500,-0.0084002
 6,0.00026742,-0.08345685,0.08274284,-0.00044018,0.00000718,0.00003975,
 0.00014652,-0.00007283,-0.00001951,0.00021028,0.00010748,0.00004039,0.
 00039743,-0.00029393,-0.00005507,-0.00026199,0.00044853,-0.00001539,0.
 00004155,0.00003997,0.00013338,-0.00015117,-0.00252492,-0.00310237,-0.
 00018568,-0.00025975,0.00011484,-0.00101027,0.00005675,0.00080911,-0.0
 3089348,0.00510074,-0.00745656,-0.00055642,0.00033776,0.00032400,-0.00
 025283,-0.00084574,0.00233335,0.02351629,-0.01828536,-0.01902127,0.000
 29079,0.00061558,-0.00028611,-0.00063654,-0.00010627,-0.00145459,-0.00
 000347,-0.00000223,-0.00000210,-0.00003971,0.00004283,0.00002068,0.000
 61728,0.00024398,0.00023442,-0.01005780,0.00492375,-0.00350005,0.01926
 942,0.01046648,0.03086310\\-0.00000338,-0.00001720,-0.00002774,-0.0000
 0259,0.00001286,0.00001556,-0.00000073,0.00000288,0.00000475,0.0000047
 1,0.00000467,0.00001325,-0.00000425,0.00000799,-0.00000025,-0.00000016
 ,-0.00000003,0.00000243,-0.00000066,-0.00001853,-0.00000242,0.00000304
 ,0.00000323,-0.00000565,-0.00000330,0.00000336,-0.00000731,0.00000242,
 0.00002692,0.00003228,-0.00000201,0.00000151,-0.00000963,-0.00000810,-
 0.00001092,-0.00000438,0.00000366,-0.00000498,-0.00002620,0.00000969,-
 0.00000516,-0.00000356,0.00000785,0.00000896,-0.00000044,-0.00000204,-
 0.00000429,0.00000014,-0.00000038,-0.00000075,0.00000505,-0.00000413,-
 0.00000666,-0.00000554,-0.00000020,-0.00000578,0.00001027,0.00000056,0
 .00000193,0.00000938\\\@


 Life may have no meaning.  Or even worse, it may have a
 meaning of which I disapprove.
                                 -- Ashleigh Brilliant
 Job cpu time:       0 days  0 hours 10 minutes 41.7 seconds.
 File lengths (MBytes):  RWF=     79 Int=      0 D2E=      0 Chk=      4 Scr=      1
 Normal termination of Gaussian 09 at Tue Jan 10 15:21:02 2017.
