 Entering Gaussian System, Link 0=/share/apps/gaussian/g09/g09
 Input=glutamine_hf.com
 Output=glutamine_hf.log
 Initial command:
 /share/apps/gaussian/g09/l1.exe "/mnt/scratch/kkesgin/CompChem/Gau-11488.inp" -scrdir="/mnt/scratch/kkesgin/CompChem/"
 Entering Link 1 = /share/apps/gaussian/g09/l1.exe PID=     11489.
  
 Copyright (c) 1988,1990,1992,1993,1995,1998,2003,2009,2013,
            Gaussian, Inc.  All Rights Reserved.
  
 This is part of the Gaussian(R) 09 program.  It is based on
 the Gaussian(R) 03 system (copyright 2003, Gaussian, Inc.),
 the Gaussian(R) 98 system (copyright 1998, Gaussian, Inc.),
 the Gaussian(R) 94 system (copyright 1995, Gaussian, Inc.),
 the Gaussian 92(TM) system (copyright 1992, Gaussian, Inc.),
 the Gaussian 90(TM) system (copyright 1990, Gaussian, Inc.),
 the Gaussian 88(TM) system (copyright 1988, Gaussian, Inc.),
 the Gaussian 86(TM) system (copyright 1986, Carnegie Mellon
 University), and the Gaussian 82(TM) system (copyright 1983,
 Carnegie Mellon University). Gaussian is a federally registered
 trademark of Gaussian, Inc.
  
 This software contains proprietary and confidential information,
 including trade secrets, belonging to Gaussian, Inc.
  
 This software is provided under written license and may be
 used, copied, transmitted, or stored only in accord with that
 written license.
  
 The following legend is applicable only to US Government
 contracts under FAR:
  
                    RESTRICTED RIGHTS LEGEND
  
 Use, reproduction and disclosure by the US Government is
 subject to restrictions as set forth in subparagraphs (a)
 and (c) of the Commercial Computer Software - Restricted
 Rights clause in FAR 52.227-19.
  
 Gaussian, Inc.
 340 Quinnipiac St., Bldg. 40, Wallingford CT 06492
  
  
 ---------------------------------------------------------------
 Warning -- This program may not be used in any manner that
 competes with the business of Gaussian, Inc. or will provide
 assistance to any competitor of Gaussian, Inc.  The licensee
 of this program is prohibited from giving any competitor of
 Gaussian, Inc. access to this program.  By using this program,
 the user acknowledges that Gaussian, Inc. is engaged in the
 business of creating and licensing software in the field of
 computational chemistry and represents and warrants to the
 licensee that it is not a competitor of Gaussian, Inc. and that
 it will not use this program in any manner prohibited above.
 ---------------------------------------------------------------
  

 Cite this work as:
 Gaussian 09, Revision D.01,
 M. J. Frisch, G. W. Trucks, H. B. Schlegel, G. E. Scuseria, 
 M. A. Robb, J. R. Cheeseman, G. Scalmani, V. Barone, B. Mennucci, 
 G. A. Petersson, H. Nakatsuji, M. Caricato, X. Li, H. P. Hratchian, 
 A. F. Izmaylov, J. Bloino, G. Zheng, J. L. Sonnenberg, M. Hada, 
 M. Ehara, K. Toyota, R. Fukuda, J. Hasegawa, M. Ishida, T. Nakajima, 
 Y. Honda, O. Kitao, H. Nakai, T. Vreven, J. A. Montgomery, Jr., 
 J. E. Peralta, F. Ogliaro, M. Bearpark, J. J. Heyd, E. Brothers, 
 K. N. Kudin, V. N. Staroverov, T. Keith, R. Kobayashi, J. Normand, 
 K. Raghavachari, A. Rendell, J. C. Burant, S. S. Iyengar, J. Tomasi, 
 M. Cossi, N. Rega, J. M. Millam, M. Klene, J. E. Knox, J. B. Cross, 
 V. Bakken, C. Adamo, J. Jaramillo, R. Gomperts, R. E. Stratmann, 
 O. Yazyev, A. J. Austin, R. Cammi, C. Pomelli, J. W. Ochterski, 
 R. L. Martin, K. Morokuma, V. G. Zakrzewski, G. A. Voth, 
 P. Salvador, J. J. Dannenberg, S. Dapprich, A. D. Daniels, 
 O. Farkas, J. B. Foresman, J. V. Ortiz, J. Cioslowski, 
 and D. J. Fox, Gaussian, Inc., Wallingford CT, 2013.
 
 ******************************************
 Gaussian 09:  EM64L-G09RevD.01 24-Apr-2013
                10-Jan-2017 
 ******************************************
 %chk=glutamine.chk
 ----------------------
 # opt freq hf 6-31g(d)
 ----------------------
 1/18=20,19=15,38=1/1,3;
 2/9=110,12=2,17=6,18=5,40=1/2;
 3/5=1,6=6,7=1,11=9,16=1,25=1,30=1,71=1/1,2,3;
 4//1;
 5/5=2,38=5/2;
 6/7=2,8=2,9=2,10=2,28=1/1;
 7//1,2,3,16;
 1/18=20,19=15/3(2);
 2/9=110/2;
 99//99;
 2/9=110/2;
 3/5=1,6=6,7=1,11=9,16=1,25=1,30=1,71=1/1,2,3;
 4/5=5,16=3,69=1/1;
 5/5=2,38=5/2;
 7//1,2,3,16;
 1/18=20,19=15/3(-5);
 2/9=110/2;
 6/7=2,8=2,9=2,10=2,19=2,28=1/1;
 99/9=1/99;
 -------------------
 Title Card Required
 -------------------
 Symbolic Z-matrix:
 Charge =  0 Multiplicity = 1
 C                    -1.12146  -0.61118  -0.16928 
 N                    -0.38899  -1.88569  -0.16928 
 O                    -0.49442   0.47987  -0.16928 
 C                    -2.66146  -0.61118  -0.16928 
 H                    -3.01813  -1.11342  -1.04418 
 H                    -3.01813  -1.11774   0.70312 
 C                    -3.1748    0.84074  -0.16569 
 H                    -2.81885   1.34705  -1.03853 
 H                    -2.81741   1.34324   0.70876 
 C                    -4.7148    0.84074  -0.16443 
 H                    -5.07075   0.3347    0.70857 
 C                    -5.22813   2.29266  -0.16129 
 N                    -5.20578   0.15002  -1.36557 
 O                    -4.22008   3.04592  -0.16061 
 O                    -6.54107   2.85931  -0.15924 
 H                     0.61101  -1.88767  -0.16928 
 H                    -0.8907   -2.75073  -0.16928 
 H                    -6.47622   3.81711  -0.15577 
 H                    -4.55412  -0.5604   -1.63137 
 H                    -6.09317  -0.26774  -1.17055 
 

 GradGradGradGradGradGradGradGradGradGradGradGradGradGradGradGradGradGrad
 Berny optimization.
 Initialization pass.
                           ----------------------------
                           !    Initial Parameters    !
                           ! (Angstroms and Degrees)  !
 --------------------------                            --------------------------
 ! Name  Definition              Value          Derivative Info.                !
 --------------------------------------------------------------------------------
 ! R1    R(1,2)                  1.47           estimate D2E/DX2                !
 ! R2    R(1,3)                  1.2584         estimate D2E/DX2                !
 ! R3    R(1,4)                  1.54           estimate D2E/DX2                !
 ! R4    R(2,16)                 1.0            estimate D2E/DX2                !
 ! R5    R(2,17)                 1.0            estimate D2E/DX2                !
 ! R6    R(4,5)                  1.07           estimate D2E/DX2                !
 ! R7    R(4,6)                  1.07           estimate D2E/DX2                !
 ! R8    R(4,7)                  1.54           estimate D2E/DX2                !
 ! R9    R(7,8)                  1.07           estimate D2E/DX2                !
 ! R10   R(7,9)                  1.07           estimate D2E/DX2                !
 ! R11   R(7,10)                 1.54           estimate D2E/DX2                !
 ! R12   R(10,11)                1.07           estimate D2E/DX2                !
 ! R13   R(10,12)                1.54           estimate D2E/DX2                !
 ! R14   R(10,13)                1.47           estimate D2E/DX2                !
 ! R15   R(12,14)                1.2584         estimate D2E/DX2                !
 ! R16   R(12,15)                1.43           estimate D2E/DX2                !
 ! R17   R(13,19)                1.0            estimate D2E/DX2                !
 ! R18   R(13,20)                1.0            estimate D2E/DX2                !
 ! R19   R(15,18)                0.96           estimate D2E/DX2                !
 ! A1    A(2,1,3)              120.2269         estimate D2E/DX2                !
 ! A2    A(2,1,4)              119.8865         estimate D2E/DX2                !
 ! A3    A(3,1,4)              119.8865         estimate D2E/DX2                !
 ! A4    A(1,2,16)             120.0            estimate D2E/DX2                !
 ! A5    A(1,2,17)             120.0            estimate D2E/DX2                !
 ! A6    A(16,2,17)            120.0            estimate D2E/DX2                !
 ! A7    A(1,4,5)              109.4712         estimate D2E/DX2                !
 ! A8    A(1,4,6)              109.4712         estimate D2E/DX2                !
 ! A9    A(1,4,7)              109.4712         estimate D2E/DX2                !
 ! A10   A(5,4,6)              109.4713         estimate D2E/DX2                !
 ! A11   A(5,4,7)              109.4712         estimate D2E/DX2                !
 ! A12   A(6,4,7)              109.4712         estimate D2E/DX2                !
 ! A13   A(4,7,8)              109.4712         estimate D2E/DX2                !
 ! A14   A(4,7,9)              109.4712         estimate D2E/DX2                !
 ! A15   A(4,7,10)             109.4712         estimate D2E/DX2                !
 ! A16   A(8,7,9)              109.4712         estimate D2E/DX2                !
 ! A17   A(8,7,10)             109.4713         estimate D2E/DX2                !
 ! A18   A(9,7,10)             109.4712         estimate D2E/DX2                !
 ! A19   A(7,10,11)            109.4712         estimate D2E/DX2                !
 ! A20   A(7,10,12)            109.4712         estimate D2E/DX2                !
 ! A21   A(7,10,13)            109.4712         estimate D2E/DX2                !
 ! A22   A(11,10,12)           109.4713         estimate D2E/DX2                !
 ! A23   A(11,10,13)           109.4712         estimate D2E/DX2                !
 ! A24   A(12,10,13)           109.4712         estimate D2E/DX2                !
 ! A25   A(10,12,14)           107.2975         estimate D2E/DX2                !
 ! A26   A(10,12,15)           132.816          estimate D2E/DX2                !
 ! A27   A(14,12,15)           119.8865         estimate D2E/DX2                !
 ! A28   A(10,13,19)           109.4712         estimate D2E/DX2                !
 ! A29   A(10,13,20)           109.4712         estimate D2E/DX2                !
 ! A30   A(19,13,20)           109.4712         estimate D2E/DX2                !
 ! A31   A(12,15,18)           109.4712         estimate D2E/DX2                !
 ! D1    D(3,1,2,16)             0.0            estimate D2E/DX2                !
 ! D2    D(3,1,2,17)           180.0            estimate D2E/DX2                !
 ! D3    D(4,1,2,16)           180.0            estimate D2E/DX2                !
 ! D4    D(4,1,2,17)             0.0            estimate D2E/DX2                !
 ! D5    D(2,1,4,5)            -60.1417         estimate D2E/DX2                !
 ! D6    D(2,1,4,6)             59.8583         estimate D2E/DX2                !
 ! D7    D(2,1,4,7)            179.8583         estimate D2E/DX2                !
 ! D8    D(3,1,4,5)            119.8583         estimate D2E/DX2                !
 ! D9    D(3,1,4,6)           -120.1417         estimate D2E/DX2                !
 ! D10   D(3,1,4,7)             -0.1417         estimate D2E/DX2                !
 ! D11   D(1,4,7,8)             60.0499         estimate D2E/DX2                !
 ! D12   D(1,4,7,9)            -59.9501         estimate D2E/DX2                !
 ! D13   D(1,4,7,10)          -179.9501         estimate D2E/DX2                !
 ! D14   D(5,4,7,8)            -59.9501         estimate D2E/DX2                !
 ! D15   D(5,4,7,9)           -179.95           estimate D2E/DX2                !
 ! D16   D(5,4,7,10)            60.05           estimate D2E/DX2                !
 ! D17   D(6,4,7,8)           -179.9501         estimate D2E/DX2                !
 ! D18   D(6,4,7,9)             60.0499         estimate D2E/DX2                !
 ! D19   D(6,4,7,10)           -59.9501         estimate D2E/DX2                !
 ! D20   D(4,7,10,11)           60.0179         estimate D2E/DX2                !
 ! D21   D(4,7,10,12)         -179.9821         estimate D2E/DX2                !
 ! D22   D(4,7,10,13)          -59.9821         estimate D2E/DX2                !
 ! D23   D(8,7,10,11)         -179.9822         estimate D2E/DX2                !
 ! D24   D(8,7,10,12)          -59.9821         estimate D2E/DX2                !
 ! D25   D(8,7,10,13)           60.0178         estimate D2E/DX2                !
 ! D26   D(9,7,10,11)          -59.9821         estimate D2E/DX2                !
 ! D27   D(9,7,10,12)           60.0179         estimate D2E/DX2                !
 ! D28   D(9,7,10,13)         -179.9821         estimate D2E/DX2                !
 ! D29   D(7,10,12,14)          -0.0047         estimate D2E/DX2                !
 ! D30   D(7,10,12,15)         179.9953         estimate D2E/DX2                !
 ! D31   D(11,10,12,14)        119.9953         estimate D2E/DX2                !
 ! D32   D(11,10,12,15)        -60.0047         estimate D2E/DX2                !
 ! D33   D(13,10,12,14)       -120.0047         estimate D2E/DX2                !
 ! D34   D(13,10,12,15)         59.9953         estimate D2E/DX2                !
 ! D35   D(7,10,13,19)          30.8666         estimate D2E/DX2                !
 ! D36   D(7,10,13,20)         150.8666         estimate D2E/DX2                !
 ! D37   D(11,10,13,19)        -89.1334         estimate D2E/DX2                !
 ! D38   D(11,10,13,20)         30.8666         estimate D2E/DX2                !
 ! D39   D(12,10,13,19)        150.8665         estimate D2E/DX2                !
 ! D40   D(12,10,13,20)        -89.1335         estimate D2E/DX2                !
 ! D41   D(10,12,15,18)        179.8924         estimate D2E/DX2                !
 ! D42   D(14,12,15,18)         -0.1076         estimate D2E/DX2                !
 --------------------------------------------------------------------------------
 Trust Radius=3.00D-01 FncErr=1.00D-07 GrdErr=1.00D-07
 Number of steps in this run=    102 maximum allowed number of steps=    120.
 GradGradGradGradGradGradGradGradGradGradGradGradGradGradGradGradGradGrad

                          Input orientation:                          
 ---------------------------------------------------------------------
 Center     Atomic      Atomic             Coordinates (Angstroms)
 Number     Number       Type             X           Y           Z
 ---------------------------------------------------------------------
      1          6           0       -1.121464   -0.611181   -0.169284
      2          7           0       -0.388987   -1.885692   -0.169284
      3          8           0       -0.494424    0.479869   -0.169284
      4          6           0       -2.661464   -0.611181   -0.169284
      5          1           0       -3.018131   -1.113422   -1.044181
      6          1           0       -3.018131   -1.117743    0.703117
      7          6           0       -3.174798    0.840740   -0.165694
      8          1           0       -2.818849    1.347049   -1.038535
      9          1           0       -2.817414    1.343236    0.708763
     10          6           0       -4.714797    0.840737   -0.164428
     11          1           0       -5.070745    0.334699    0.708571
     12          6           0       -5.228131    2.292659   -0.161290
     13          7           0       -5.205783    0.150018   -1.365569
     14          8           0       -4.220080    3.045921   -0.160610
     15          8           0       -6.541068    2.859311   -0.159237
     16          1           0        0.611011   -1.887672   -0.169284
     17          1           0       -0.890701   -2.750725   -0.169284
     18          1           0       -6.476215    3.817112   -0.155768
     19          1           0       -4.554120   -0.560395   -1.631368
     20          1           0       -6.093167   -0.267736   -1.170552
 ---------------------------------------------------------------------
                    Distance matrix (angstroms):
                    1          2          3          4          5
     1  C    0.000000
     2  N    1.470000   0.000000
     3  O    1.258400   2.367909   0.000000
     4  C    1.540000   2.605481   2.426202   0.000000
     5  H    2.148263   2.876498   3.110163   1.070000   0.000000
     6  H    2.148263   2.874583   3.111679   1.070000   1.747303
     7  C    2.514810   3.897972   2.704560   1.540000   2.148263
     8  H    2.733382   4.136477   2.628792   2.148263   2.468534
     9  H    2.732574   4.134513   2.629192   2.148263   3.024610
    10  C    3.875581   5.113323   4.235776   2.514809   2.733382
    11  H    4.154773   5.255438   4.662019   2.733122   3.063073
    12  C    5.029619   6.393434   5.068950   3.875581   4.155115
    13  N    4.323446   5.364395   4.872043   2.912744   2.546643
    14  O    4.793317   6.244850   4.523849   3.975393   4.418768
    15  O    6.435566   7.769379   6.497980   5.205357   5.383011
    16  H    2.151953   1.000000   2.612898   3.512624   3.812555
    17  H    2.151953   1.000000   3.254808   2.777274   2.823502
    18  H    6.948620   8.341253   6.849759   5.844851   6.087511
    19  H    3.731406   4.608951   4.438578   2.392157   1.734904
    20  H    5.083141   6.013152   5.736495   3.591250   3.191709
                    6          7          8          9         10
     6  H    0.000000
     7  C    2.148263   0.000000
     8  H    3.024610   1.070000   0.000000
     9  H    2.469157   1.070000   1.747303   0.000000
    10  C    2.732573   1.540000   2.148263   2.148263   0.000000
    11  H    2.514527   2.148263   3.024610   2.468734   1.070000
    12  C    4.154774   2.514809   2.732833   2.733122   1.540000
    13  N    3.266880   2.457987   2.690221   3.380966   1.470000
    14  O    4.418914   2.440382   2.370731   2.371164   2.259999
    15  O    5.382536   3.925104   4.112786   4.113090   2.722119
    16  H    3.811108   4.666540   4.794055   4.792059   5.984018
    17  H    2.820225   4.256258   4.611410   4.609090   5.246173
    18  H    6.086774   4.445024   4.500757   4.500478   3.458537
    19  H    2.849512   2.452328   2.645933   3.480830   2.034920
    20  H    3.699865   3.279533   3.653234   4.105803   2.034920
                   11         12         13         14         15
    11  H    0.000000
    12  C    2.148263   0.000000
    13  N    2.086720   2.457987   0.000000
    14  O    2.971503   1.258400   3.287825   0.000000
    15  O    3.047721   1.430000   3.252459   2.328477   0.000000
    16  H    6.163758   7.181282   6.278405   6.905060   8.584065
    17  H    5.269083   6.651999   5.335292   6.684755   7.962364
    18  H    3.853521   1.970203   4.065119   2.384304   0.960000
    19  H    2.558009   3.279533   1.000000   3.908993   4.220132
    20  H    2.222471   2.884877   1.000000   3.938116   3.316895
                   16         17         18         19         20
    16  H    0.000000
    17  H    1.732051   0.000000
    18  H    9.097995   8.621753   0.000000
    19  H    5.529732   4.511748   5.003440   0.000000
    20  H    6.969414   5.850934   4.226404   1.632993   0.000000
 Stoichiometry    C5H10N2O3
 Framework group  C1[X(C5H10N2O3)]
 Deg. of freedom    54
 Full point group                 C1      NOp   1
 Largest Abelian subgroup         C1      NOp   1
 Largest concise Abelian subgroup C1      NOp   1
                         Standard orientation:                         
 ---------------------------------------------------------------------
 Center     Atomic      Atomic             Coordinates (Angstroms)
 Number     Number       Type             X           Y           Z
 ---------------------------------------------------------------------
      1          6           0       -2.617314   -0.222853    0.011223
      2          7           0       -3.944001    0.396817    0.140881
      3          8           0       -2.513223   -1.437745   -0.299862
      4          6           0       -1.350487    0.617609    0.256932
      5          1           0       -1.323152    1.432503   -0.435961
      6          1           0       -1.364142    0.999538    1.256353
      7          6           0       -0.103351   -0.264459    0.061468
      8          1           0       -0.089240   -0.645684   -0.938216
      9          1           0       -0.131121   -1.079839    0.753772
     10          6           0        1.163446    0.575690    0.308403
     11          1           0        1.149485    0.956658    1.308187
     12          6           0        2.410593   -0.306266    0.112501
     13          7           0        1.201381    1.696131   -0.642425
     14          8           0        2.009322   -1.459084   -0.193378
     15          8           0        3.812544   -0.043476    0.214363
     16          1           0       -4.767739   -0.147353   -0.018287
     17          1           0       -4.022770    1.362530    0.388252
     18          1           0        4.303314   -0.845837    0.022109
     19          1           0        0.267539    1.975098   -0.866292
     20          1           0        1.689700    2.465857   -0.231249
 ---------------------------------------------------------------------
 Rotational constants (GHZ):      3.2486023      0.5560003      0.4902934
 Standard basis: 6-31G(d) (6D, 7F)
 There are   170 symmetry adapted cartesian basis functions of A   symmetry.
 There are   170 symmetry adapted basis functions of A   symmetry.
   170 basis functions,   320 primitive gaussians,   170 cartesian basis functions
    39 alpha electrons       39 beta electrons
       nuclear repulsion energy       532.1176666357 Hartrees.
 NAtoms=   20 NActive=   20 NUniq=   20 SFac= 1.00D+00 NAtFMM=   60 NAOKFM=F Big=F
 Integral buffers will be    131072 words long.
 Raffenetti 1 integral format.
 Two-electron integral symmetry is turned on.
 One-electron integrals computed using PRISM.
 NBasis=   170 RedAO= T EigKep=  1.79D-03  NBF=   170
 NBsUse=   170 1.00D-06 EigRej= -1.00D+00 NBFU=   170
 ExpMin= 1.61D-01 ExpMax= 5.48D+03 ExpMxC= 8.25D+02 IAcc=1 IRadAn=         1 AccDes= 0.00D+00
 Harris functional with IExCor=  205 and IRadAn=       1 diagonalized for initial guess.
 HarFok:  IExCor=  205 AccDes= 0.00D+00 IRadAn=         1 IDoV= 1 UseB2=F ITyADJ=14
 ICtDFT=  3500011 ScaDFX=  1.000000  1.000000  1.000000  1.000000
 FoFCou: FMM=F IPFlag=           0 FMFlag=      100000 FMFlg1=           0
         NFxFlg=           0 DoJE=T BraDBF=F KetDBF=T FulRan=T
         wScrn=  0.000000 ICntrl=     500 IOpCl=  0 I1Cent=   200000004 NGrid=           0
         NMat0=    1 NMatS0=      1 NMatT0=    0 NMatD0=    1 NMtDS0=    0 NMtDT0=    0
 Petite list used in FoFCou.
 Requested convergence on RMS density matrix=1.00D-08 within 128 cycles.
 Requested convergence on MAX density matrix=1.00D-06.
 Requested convergence on             energy=1.00D-06.
 No special actions if energy rises.
 Integral accuracy reduced to 1.0D-05 until final iterations.
 Initial convergence to 1.0D-05 achieved.  Increase integral accuracy.
 SCF Done:  E(RHF) =  -528.601640628     A.U. after   15 cycles
            NFock= 15  Conv=0.94D-08     -V/T= 2.0035

 **********************************************************************

            Population analysis using the SCF density.

 **********************************************************************

 Orbital symmetries:
       Occupied  (A) (A) (A) (A) (A) (A) (A) (A) (A) (A) (A) (A)
                 (A) (A) (A) (A) (A) (A) (A) (A) (A) (A) (A) (A)
                 (A) (A) (A) (A) (A) (A) (A) (A) (A) (A) (A) (A)
                 (A) (A) (A)
       Virtual   (A) (A) (A) (A) (A) (A) (A) (A) (A) (A) (A) (A)
                 (A) (A) (A) (A) (A) (A) (A) (A) (A) (A) (A) (A)
                 (A) (A) (A) (A) (A) (A) (A) (A) (A) (A) (A) (A)
                 (A) (A) (A) (A) (A) (A) (A) (A) (A) (A) (A) (A)
                 (A) (A) (A) (A) (A) (A) (A) (A) (A) (A) (A) (A)
                 (A) (A) (A) (A) (A) (A) (A) (A) (A) (A) (A) (A)
                 (A) (A) (A) (A) (A) (A) (A) (A) (A) (A) (A) (A)
                 (A) (A) (A) (A) (A) (A) (A) (A) (A) (A) (A) (A)
                 (A) (A) (A) (A) (A) (A) (A) (A) (A) (A) (A) (A)
                 (A) (A) (A) (A) (A) (A) (A) (A) (A) (A) (A) (A)
                 (A) (A) (A) (A) (A) (A) (A) (A) (A) (A) (A)
 The electronic state is 1-A.
 Alpha  occ. eigenvalues --  -20.61991 -20.55018 -20.53843 -15.58922 -15.55895
 Alpha  occ. eigenvalues --  -11.39858 -11.37859 -11.29193 -11.25566 -11.22721
 Alpha  occ. eigenvalues --   -1.42476  -1.35636  -1.33575  -1.21070  -1.18078
 Alpha  occ. eigenvalues --   -1.06916  -0.97730  -0.88090  -0.79153  -0.77131
 Alpha  occ. eigenvalues --   -0.71826  -0.70875  -0.69099  -0.67803  -0.66096
 Alpha  occ. eigenvalues --   -0.64189  -0.63461  -0.59041  -0.57785  -0.56615
 Alpha  occ. eigenvalues --   -0.53150  -0.51516  -0.50510  -0.50007  -0.46209
 Alpha  occ. eigenvalues --   -0.44897  -0.42560  -0.40606  -0.40041
 Alpha virt. eigenvalues --    0.15944   0.17259   0.20908   0.21779   0.22599
 Alpha virt. eigenvalues --    0.26130   0.26788   0.28311   0.30795   0.32769
 Alpha virt. eigenvalues --    0.33298   0.35256   0.36991   0.39496   0.42261
 Alpha virt. eigenvalues --    0.43363   0.44899   0.49613   0.50038   0.56020
 Alpha virt. eigenvalues --    0.61330   0.73019   0.74010   0.74815   0.77151
 Alpha virt. eigenvalues --    0.78477   0.79567   0.83451   0.85574   0.89424
 Alpha virt. eigenvalues --    0.90688   0.91816   0.93078   0.93630   0.94949
 Alpha virt. eigenvalues --    0.98094   0.99575   1.00557   1.04779   1.07388
 Alpha virt. eigenvalues --    1.09176   1.11134   1.13262   1.13834   1.15242
 Alpha virt. eigenvalues --    1.16148   1.17096   1.17745   1.18945   1.20193
 Alpha virt. eigenvalues --    1.21379   1.22419   1.22444   1.24658   1.25441
 Alpha virt. eigenvalues --    1.28355   1.30581   1.33361   1.35546   1.40704
 Alpha virt. eigenvalues --    1.42914   1.44558   1.47829   1.52891   1.56996
 Alpha virt. eigenvalues --    1.58106   1.63185   1.66715   1.69189   1.69724
 Alpha virt. eigenvalues --    1.84171   1.86748   1.88514   1.92087   1.93455
 Alpha virt. eigenvalues --    1.95324   1.96940   2.00728   2.03140   2.04776
 Alpha virt. eigenvalues --    2.06105   2.09082   2.10211   2.14786   2.16353
 Alpha virt. eigenvalues --    2.17371   2.21138   2.24287   2.26029   2.28403
 Alpha virt. eigenvalues --    2.30664   2.31432   2.35390   2.36055   2.41874
 Alpha virt. eigenvalues --    2.44453   2.47543   2.53472   2.55501   2.58528
 Alpha virt. eigenvalues --    2.59712   2.64953   2.68581   2.71778   2.73684
 Alpha virt. eigenvalues --    2.76418   2.81980   2.86129   2.87309   2.89185
 Alpha virt. eigenvalues --    2.90503   2.90971   2.98796   3.02203   3.08579
 Alpha virt. eigenvalues --    3.17132   3.22272   3.32024   3.32231   3.34813
 Alpha virt. eigenvalues --    3.38713   4.17726   4.21293   4.28194   4.39946
 Alpha virt. eigenvalues --    4.46013   4.58620   4.65439   4.78704   4.88897
 Alpha virt. eigenvalues --    5.09656
          Condensed to atoms (all electrons):
               1          2          3          4          5          6
     1  C    4.166027   0.308241   0.563560   0.335281  -0.025852  -0.026560
     2  N    0.308241   7.170765  -0.074019  -0.094373   0.002283   0.001619
     3  O    0.563560  -0.074019   8.175124  -0.083479   0.001083   0.000953
     4  C    0.335281  -0.094373  -0.083479   5.387675   0.372199   0.375848
     5  H   -0.025852   0.002283   0.001083   0.372199   0.531955  -0.024975
     6  H   -0.026560   0.001619   0.000953   0.375848  -0.024975   0.506564
     7  C   -0.042185   0.002672   0.002443   0.293731  -0.034613  -0.032144
     8  H   -0.002120   0.000067   0.002076  -0.043167  -0.001334   0.003563
     9  H   -0.001395   0.000080   0.001997  -0.040611   0.003555  -0.001569
    10  C    0.003975  -0.000019   0.000678  -0.051474  -0.004930  -0.003211
    11  H   -0.000318  -0.000001   0.000000  -0.005873   0.000512   0.002439
    12  C   -0.000023   0.000000  -0.000020   0.004386  -0.000161  -0.000073
    13  N    0.000263  -0.000001  -0.000008  -0.006904  -0.001384   0.000131
    14  O   -0.000034   0.000000   0.000007   0.001883  -0.000019  -0.000018
    15  O    0.000000   0.000000   0.000000  -0.000005   0.000000   0.000000
    16  H   -0.012061   0.315461   0.004780   0.003399  -0.000101  -0.000090
    17  H   -0.020165   0.319727   0.001921   0.004165   0.000279   0.000243
    18  H    0.000000   0.000000   0.000000   0.000001   0.000000   0.000000
    19  H    0.000179  -0.000024  -0.000002  -0.000214   0.003517   0.000157
    20  H    0.000011   0.000000   0.000000   0.000237  -0.000005  -0.000078
               7          8          9         10         11         12
     1  C   -0.042185  -0.002120  -0.001395   0.003975  -0.000318  -0.000023
     2  N    0.002672   0.000067   0.000080  -0.000019  -0.000001   0.000000
     3  O    0.002443   0.002076   0.001997   0.000678   0.000000  -0.000020
     4  C    0.293731  -0.043167  -0.040611  -0.051474  -0.005873   0.004386
     5  H   -0.034613  -0.001334   0.003555  -0.004930   0.000512  -0.000161
     6  H   -0.032144   0.003563  -0.001569  -0.003211   0.002439  -0.000073
     7  C    5.087959   0.408357   0.411157   0.342180  -0.036571  -0.049830
     8  H    0.408357   0.451897  -0.012042  -0.039179   0.004198  -0.002917
     9  H    0.411157  -0.012042   0.455368  -0.038948  -0.000518  -0.000924
    10  C    0.342180  -0.039179  -0.038948   5.122344   0.390728   0.351319
    11  H   -0.036571   0.004198  -0.000518   0.390728   0.563762  -0.046573
    12  C   -0.049830  -0.002917  -0.000924   0.351319  -0.046573   4.185981
    13  N   -0.054503   0.000397   0.003046   0.237835  -0.050504  -0.059543
    14  O   -0.023440   0.000547  -0.000551  -0.096420   0.002788   0.527881
    15  O    0.001183  -0.000002  -0.000003  -0.049739   0.001715   0.277113
    16  H   -0.000070  -0.000001  -0.000001   0.000001   0.000000   0.000000
    17  H   -0.000079  -0.000003  -0.000002  -0.000004   0.000000   0.000000
    18  H   -0.000091  -0.000003   0.000001   0.003968  -0.000193  -0.007709
    19  H   -0.008605   0.000386   0.000117  -0.038585   0.001353   0.003730
    20  H    0.004668  -0.000084  -0.000133  -0.029706  -0.005544  -0.000910
              13         14         15         16         17         18
     1  C    0.000263  -0.000034   0.000000  -0.012061  -0.020165   0.000000
     2  N   -0.000001   0.000000   0.000000   0.315461   0.319727   0.000000
     3  O   -0.000008   0.000007   0.000000   0.004780   0.001921   0.000000
     4  C   -0.006904   0.001883  -0.000005   0.003399   0.004165   0.000001
     5  H   -0.001384  -0.000019   0.000000  -0.000101   0.000279   0.000000
     6  H    0.000131  -0.000018   0.000000  -0.000090   0.000243   0.000000
     7  C   -0.054503  -0.023440   0.001183  -0.000070  -0.000079  -0.000091
     8  H    0.000397   0.000547  -0.000002  -0.000001  -0.000003  -0.000003
     9  H    0.003046  -0.000551  -0.000003  -0.000001  -0.000002   0.000001
    10  C    0.237835  -0.096420  -0.049739   0.000001  -0.000004   0.003968
    11  H   -0.050504   0.002788   0.001715   0.000000   0.000000  -0.000193
    12  C   -0.059543   0.527881   0.277113   0.000000   0.000000  -0.007709
    13  N    7.105058   0.001638   0.003269   0.000000   0.000001  -0.000253
    14  O    0.001638   8.220511  -0.069842   0.000000   0.000000   0.006988
    15  O    0.003269  -0.069842   8.342235   0.000000   0.000000   0.246596
    16  H    0.000000   0.000000   0.000000   0.297569  -0.013485   0.000000
    17  H    0.000001   0.000000   0.000000  -0.013485   0.325304   0.000000
    18  H   -0.000253   0.006988   0.246596   0.000000   0.000000   0.273323
    19  H    0.339303  -0.000143  -0.000052   0.000000   0.000001   0.000004
    20  H    0.330435  -0.000076   0.000447   0.000000   0.000000   0.000002
              19         20
     1  C    0.000179   0.000011
     2  N   -0.000024   0.000000
     3  O   -0.000002   0.000000
     4  C   -0.000214   0.000237
     5  H    0.003517  -0.000005
     6  H    0.000157  -0.000078
     7  C   -0.008605   0.004668
     8  H    0.000386  -0.000084
     9  H    0.000117  -0.000133
    10  C   -0.038585  -0.029706
    11  H    0.001353  -0.005544
    12  C    0.003730  -0.000910
    13  N    0.339303   0.330435
    14  O   -0.000143  -0.000076
    15  O   -0.000052   0.000447
    16  H    0.000000   0.000000
    17  H    0.000001   0.000000
    18  H    0.000004   0.000002
    19  H    0.364229  -0.024079
    20  H   -0.024079   0.375393
 Mulliken charges:
               1
     1  C    0.753177
     2  N   -0.952478
     3  O   -0.597093
     4  C   -0.452706
     5  H    0.177992
     6  H    0.197201
     7  C   -0.272217
     8  H    0.229364
     9  H    0.221376
    10  C   -0.100812
    11  H    0.178600
    12  C    0.818274
    13  N   -0.848277
    14  O   -0.571700
    15  O   -0.752914
    16  H    0.404600
    17  H    0.382097
    18  H    0.477366
    19  H    0.358728
    20  H    0.349422
 Sum of Mulliken charges =   0.00000
 Mulliken charges with hydrogens summed into heavy atoms:
               1
     1  C    0.753177
     2  N   -0.165781
     3  O   -0.597093
     4  C   -0.077513
     7  C    0.178523
    10  C    0.077788
    12  C    0.818274
    13  N   -0.140126
    14  O   -0.571700
    15  O   -0.275548
 Electronic spatial extent (au):  <R**2>=           2156.0207
 Charge=              0.0000 electrons
 Dipole moment (field-independent basis, Debye):
    X=             -1.2917    Y=              5.3140    Z=              2.3931  Tot=              5.9694
 Quadrupole moment (field-independent basis, Debye-Ang):
   XX=            -47.2877   YY=            -61.7714   ZZ=            -60.7900
   XY=            -11.3007   XZ=              0.1530   YZ=              0.2958
 Traceless Quadrupole moment (field-independent basis, Debye-Ang):
   XX=              9.3286   YY=             -5.1551   ZZ=             -4.1736
   XY=            -11.3007   XZ=              0.1530   YZ=              0.2958
 Octapole moment (field-independent basis, Debye-Ang**2):
  XXX=            -25.4352  YYY=             25.1536  ZZZ=              2.1071  XYY=              6.6806
  XXY=              1.0762  XXZ=              5.0810  XZZ=              2.0520  YZZ=             -4.1188
  YYZ=              5.2857  XYZ=              2.2922
 Hexadecapole moment (field-independent basis, Debye-Ang**3):
 XXXX=          -1558.1493 YYYY=           -368.8025 ZZZZ=           -106.0665 XXXY=           -190.4256
 XXXZ=            -30.9235 YYYX=            -10.7178 YYYZ=             -2.5069 ZZZX=              8.1172
 ZZZY=              6.3990 XXYY=           -405.0366 XXZZ=           -398.0060 YYZZ=            -84.4936
 XXYZ=              9.8761 YYXZ=              0.9884 ZZXY=             -7.9846
 N-N= 5.321176666357D+02 E-N=-2.306075976278D+03  KE= 5.267775461087D+02
 Calling FoFJK, ICntrl=      2127 FMM=F ISym2X=0 I1Cent= 0 IOpClX= 0 NMat=1 NMatS=1 NMatT=0.
 ***** Axes restored to original set *****
 -------------------------------------------------------------------
 Center     Atomic                   Forces (Hartrees/Bohr)
 Number     Number              X              Y              Z
 -------------------------------------------------------------------
      1        6           0.086052712    0.032545412   -0.000412529
      2        7          -0.054374571    0.063314240   -0.000007592
      3        8          -0.047079797   -0.097541892    0.000203653
      4        6           0.023694312    0.015644253    0.001842186
      5        1           0.004964276   -0.012925360   -0.004151506
      6        1          -0.002488955   -0.011433285    0.007552264
      7        6          -0.011339558   -0.015861920    0.002132272
      8        1           0.002899691    0.004512327   -0.001936705
      9        1           0.004238571    0.003818240    0.001323091
     10        6          -0.029658843   -0.015886428   -0.020166257
     11        1          -0.004000894   -0.003061951    0.014934525
     12        6           0.080940990    0.110138058   -0.001537504
     13        7          -0.002382662    0.008079003    0.006393778
     14        8          -0.111806881   -0.024110997    0.001572138
     15        8           0.061513675   -0.054534103    0.000805410
     16        1          -0.006895040    0.004156808   -0.000029994
     17        1           0.005502673    0.004985601    0.000031037
     18        1           0.011697011   -0.010442549   -0.000717136
     19        1          -0.011056636    0.001420013   -0.002466957
     20        1          -0.000420075   -0.002815470   -0.005364173
 -------------------------------------------------------------------
 Cartesian Forces:  Max     0.111806881 RMS     0.034103900

 GradGradGradGradGradGradGradGradGradGradGradGradGradGradGradGradGradGrad
 Berny optimization.
 FormGI is forming the generalized inverse of G from B-inverse, IUseBI=4.
 Internal  Forces:  Max     0.108029284 RMS     0.025435352
 Search for a local minimum.
 Step number   1 out of a maximum of  102
 All quantities printed in internal units (Hartrees-Bohrs-Radians)
 Mixed Optimization -- RFO/linear search
 Second derivative matrix not updated -- first step.
 ITU=  0
     Eigenvalues ---    0.00237   0.00237   0.00237   0.00237   0.00449
     Eigenvalues ---    0.00541   0.00766   0.00766   0.00766   0.01295
     Eigenvalues ---    0.03840   0.04248   0.04356   0.04828   0.04896
     Eigenvalues ---    0.05056   0.05410   0.06194   0.07655   0.08669
     Eigenvalues ---    0.11701   0.12376   0.16000   0.16000   0.16000
     Eigenvalues ---    0.16000   0.16000   0.16855   0.17980   0.21948
     Eigenvalues ---    0.21983   0.25000   0.25000   0.25000   0.25000
     Eigenvalues ---    0.28519   0.28519   0.28519   0.28519   0.35740
     Eigenvalues ---    0.35740   0.37230   0.37230   0.37230   0.37230
     Eigenvalues ---    0.37230   0.40989   0.47688   0.47688   0.47688
     Eigenvalues ---    0.47688   0.55473   0.80209   0.80209
 RFO step:  Lambda=-1.16065032D-01 EMin= 2.36824115D-03
 Linear search not attempted -- first point.
 Maximum step size (   0.300) exceeded in Quadratic search.
    -- Step size scaled by   0.601
 Iteration  1 RMS(Cart)=  0.08181899 RMS(Int)=  0.00411078
 Iteration  2 RMS(Cart)=  0.00497150 RMS(Int)=  0.00015146
 Iteration  3 RMS(Cart)=  0.00001594 RMS(Int)=  0.00015118
 Iteration  4 RMS(Cart)=  0.00000000 RMS(Int)=  0.00015118
 Variable       Old X    -DE/DX   Delta X   Delta X   Delta X     New X
                                 (Linear)    (Quad)   (Total)
    R1        2.77790  -0.09061   0.00000  -0.11498  -0.11498   2.66292
    R2        2.37803  -0.10803   0.00000  -0.07069  -0.07069   2.30734
    R3        2.91018  -0.01679   0.00000  -0.02515  -0.02515   2.88503
    R4        1.88973  -0.00690   0.00000  -0.00699  -0.00699   1.88273
    R5        1.88973  -0.00707   0.00000  -0.00717  -0.00717   1.88256
    R6        2.02201   0.00781   0.00000   0.00960   0.00960   2.03161
    R7        2.02201   0.01240   0.00000   0.01525   0.01525   2.03726
    R8        2.91018   0.00430   0.00000   0.00643   0.00643   2.91661
    R9        2.02201   0.00468   0.00000   0.00576   0.00576   2.02776
   R10        2.02201   0.00429   0.00000   0.00528   0.00528   2.02728
   R11        2.91018   0.00517   0.00000   0.00774   0.00774   2.91792
   R12        2.02201   0.01496   0.00000   0.01841   0.01841   2.04042
   R13        2.91018   0.00573   0.00000   0.00858   0.00858   2.91876
   R14        2.77790   0.00266   0.00000   0.00338   0.00338   2.78128
   R15        2.37803  -0.10400   0.00000  -0.06805  -0.06805   2.30998
   R16        2.70231  -0.09296   0.00000  -0.10619  -0.10619   2.59612
   R17        1.88973  -0.00756   0.00000  -0.00766  -0.00766   1.88207
   R18        1.88973   0.00050   0.00000   0.00051   0.00051   1.89024
   R19        1.81414  -0.00963   0.00000  -0.00863  -0.00863   1.80551
    A1        2.09836   0.00114   0.00000   0.00187   0.00187   2.10022
    A2        2.09241  -0.02079   0.00000  -0.03411  -0.03411   2.05830
    A3        2.09241   0.01965   0.00000   0.03225   0.03225   2.12466
    A4        2.09440  -0.00664   0.00000  -0.01446  -0.01446   2.07994
    A5        2.09440   0.00546   0.00000   0.01187   0.01187   2.10627
    A6        2.09440   0.00119   0.00000   0.00258   0.00258   2.09698
    A7        1.91063  -0.00813   0.00000  -0.02049  -0.02073   1.88991
    A8        1.91063  -0.00404   0.00000  -0.01118  -0.01131   1.89932
    A9        1.91063   0.00617   0.00000   0.01255   0.01256   1.92319
   A10        1.91063  -0.00254   0.00000  -0.00988  -0.01022   1.90041
   A11        1.91063   0.00739   0.00000   0.02274   0.02280   1.93343
   A12        1.91063   0.00114   0.00000   0.00627   0.00631   1.91694
   A13        1.91063  -0.00123   0.00000   0.00323   0.00304   1.91368
   A14        1.91063  -0.00758   0.00000  -0.01758  -0.01751   1.89312
   A15        1.91063   0.01588   0.00000   0.03038   0.03032   1.94095
   A16        1.91063   0.00061   0.00000  -0.00517  -0.00523   1.90541
   A17        1.91063  -0.00364   0.00000  -0.00269  -0.00294   1.90769
   A18        1.91063  -0.00404   0.00000  -0.00816  -0.00802   1.90261
   A19        1.91063  -0.00804   0.00000  -0.01511  -0.01518   1.89545
   A20        1.91063   0.00909   0.00000   0.02039   0.02073   1.93136
   A21        1.91063   0.01484   0.00000   0.03524   0.03541   1.94604
   A22        1.91063  -0.00143   0.00000  -0.01182  -0.01189   1.89874
   A23        1.91063   0.00310   0.00000   0.00721   0.00689   1.91753
   A24        1.91063  -0.01756   0.00000  -0.03590  -0.03636   1.87428
   A25        1.87269   0.09561   0.00000   0.15692   0.15691   2.02961
   A26        2.31808  -0.07799   0.00000  -0.12799  -0.12800   2.19008
   A27        2.09241  -0.01762   0.00000  -0.02892  -0.02892   2.06349
   A28        1.91063   0.01130   0.00000   0.02550   0.02533   1.93597
   A29        1.91063   0.00752   0.00000   0.01729   0.01712   1.92775
   A30        1.91063  -0.00771   0.00000  -0.01497  -0.01528   1.89535
   A31        1.91063  -0.02245   0.00000  -0.04886  -0.04886   1.86177
    D1        0.00000  -0.00006   0.00000  -0.00030  -0.00029  -0.00029
    D2        3.14159  -0.00006   0.00000  -0.00030  -0.00030   3.14129
    D3        3.14159   0.00001   0.00000   0.00006   0.00006  -3.14154
    D4        0.00000   0.00001   0.00000   0.00005   0.00005   0.00005
    D5       -1.04967   0.00617   0.00000   0.01831   0.01812  -1.03155
    D6        1.04472  -0.00439   0.00000  -0.01319  -0.01304   1.03168
    D7        3.13912  -0.00169   0.00000  -0.00467  -0.00463   3.13449
    D8        2.09192   0.00624   0.00000   0.01866   0.01847   2.11039
    D9       -2.09687  -0.00432   0.00000  -0.01284  -0.01269  -2.10956
   D10       -0.00247  -0.00162   0.00000  -0.00432  -0.00427  -0.00675
   D11        1.04807  -0.00265   0.00000  -0.00719  -0.00720   1.04087
   D12       -1.04633   0.00199   0.00000   0.00793   0.00792  -1.03841
   D13       -3.14072   0.00187   0.00000   0.01009   0.01023  -3.13049
   D14       -1.04633  -0.00100   0.00000  -0.00370  -0.00378  -1.05011
   D15       -3.14072   0.00365   0.00000   0.01142   0.01133  -3.12939
   D16        1.04807   0.00352   0.00000   0.01358   0.01364   1.06171
   D17       -3.14072  -0.00312   0.00000  -0.00936  -0.00941   3.13305
   D18        1.04807   0.00152   0.00000   0.00576   0.00570   1.05377
   D19       -1.04633   0.00140   0.00000   0.00792   0.00801  -1.03831
   D20        1.04751  -0.00174   0.00000  -0.00936  -0.00943   1.03808
   D21       -3.14128  -0.00284   0.00000  -0.02060  -0.02082   3.12109
   D22       -1.04689  -0.00969   0.00000  -0.03051  -0.03028  -1.07716
   D23       -3.14128   0.00426   0.00000   0.01155   0.01150  -3.12978
   D24       -1.04689   0.00316   0.00000   0.00030   0.00012  -1.04677
   D25        1.04751  -0.00370   0.00000  -0.00960  -0.00934   1.03817
   D26       -1.04689   0.00030   0.00000  -0.00143  -0.00148  -1.04836
   D27        1.04751  -0.00080   0.00000  -0.01268  -0.01287   1.03464
   D28       -3.14128  -0.00766   0.00000  -0.02258  -0.02232   3.11958
   D29       -0.00008   0.00525   0.00000   0.01167   0.01153   0.01145
   D30        3.14151   0.00603   0.00000   0.01549   0.01543  -3.12625
   D31        2.09431   0.00010   0.00000  -0.00159  -0.00184   2.09247
   D32       -1.04728   0.00088   0.00000   0.00223   0.00206  -1.04522
   D33       -2.09448  -0.00773   0.00000  -0.02199  -0.02172  -2.11620
   D34        1.04712  -0.00696   0.00000  -0.01817  -0.01782   1.02929
   D35        0.53872  -0.00310   0.00000  -0.00618  -0.00594   0.53278
   D36        2.63312  -0.00103   0.00000   0.00170   0.00210   2.63522
   D37       -1.55567  -0.00424   0.00000  -0.01366  -0.01388  -1.56955
   D38        0.53872  -0.00216   0.00000  -0.00579  -0.00584   0.53288
   D39        2.63312   0.00637   0.00000   0.01839   0.01813   2.65125
   D40       -1.55567   0.00844   0.00000   0.02627   0.02617  -1.52950
   D41        3.13971   0.00016   0.00000   0.00060   0.00072   3.14044
   D42       -0.00188   0.00101   0.00000   0.00481   0.00469   0.00281
         Item               Value     Threshold  Converged?
 Maximum Force            0.108029     0.000450     NO 
 RMS     Force            0.025435     0.000300     NO 
 Maximum Displacement     0.294168     0.001800     NO 
 RMS     Displacement     0.080850     0.001200     NO 
 Predicted change in Energy=-5.437940D-02
 GradGradGradGradGradGradGradGradGradGradGradGradGradGradGradGradGradGrad

                          Input orientation:                          
 ---------------------------------------------------------------------
 Center     Atomic      Atomic             Coordinates (Angstroms)
 Number     Number       Type             X           Y           Z
 ---------------------------------------------------------------------
      1          6           0       -1.087002   -0.626082   -0.163636
      2          7           0       -0.433059   -1.874105   -0.140822
      3          8           0       -0.439695    0.409124   -0.176514
      4          6           0       -2.613660   -0.618691   -0.171037
      5          1           0       -2.949326   -1.154976   -1.040248
      6          1           0       -2.968242   -1.126976    0.711095
      7          6           0       -3.139276    0.832376   -0.186153
      8          1           0       -2.777667    1.337964   -1.060823
      9          1           0       -2.773604    1.335398    0.687997
     10          6           0       -4.682951    0.867443   -0.177898
     11          1           0       -5.034079    0.366690    0.711932
     12          6           0       -5.194842    2.324622   -0.163532
     13          7           0       -5.243693    0.216038   -1.372637
     14          8           0       -4.340383    3.198714   -0.173460
     15          8           0       -6.514354    2.706061   -0.136481
     16          1           0        0.562877   -1.900481   -0.135606
     17          1           0       -0.956081   -2.721901   -0.129984
     18          1           0       -6.523472    3.661445   -0.132418
     19          1           0       -4.646587   -0.513819   -1.693081
     20          1           0       -6.142362   -0.173239   -1.169180
 ---------------------------------------------------------------------
                    Distance matrix (angstroms):
                    1          2          3          4          5
     1  C    0.000000
     2  N    1.409157   0.000000
     3  O    1.220993   2.283517   0.000000
     4  C    1.526693   2.516346   2.404694   0.000000
     5  H    2.125189   2.767257   3.080697   1.075082   0.000000
     6  H    2.134271   2.776890   3.088852   1.078072   1.751669
     7  C    2.517823   3.827624   2.732576   1.543404   2.171435
     8  H    2.742402   4.081786   2.666619   2.155717   2.498928
     9  H    2.723473   4.057832   2.655653   2.140557   3.036391
    10  C    3.893799   5.057573   4.267936   2.547667   2.799872
    11  H    4.163128   5.188231   4.679690   2.758449   3.119583
    12  C    5.057766   6.348574   5.126473   3.914798   4.233034
    13  N    4.410093   5.387788   4.954431   3.009599   2.693377
    14  O    5.021319   6.403260   4.795538   4.189768   4.651986
    15  O    6.368678   7.613152   6.494537   5.125484   5.332338
    16  H    2.084941   0.996299   2.518154   3.425584   3.702665
    17  H    2.100175   0.996207   3.173664   2.678198   2.693856
    18  H    6.923804   8.230159   6.898687   5.797213   6.066019
    19  H    3.875880   4.691876   4.566151   2.541733   1.928203
    20  H    5.174249   6.045379   5.817641   3.694111   3.343039
                    6          7          8          9         10
     6  H    0.000000
     7  C    2.161797   0.000000
     8  H    3.041701   1.073046   0.000000
     9  H    2.470163   1.072793   1.748826   0.000000
    10  C    2.776372   1.544096   2.151989   2.148107   0.000000
    11  H    2.549259   2.147952   3.029428   2.459414   1.079742
    12  C    4.199553   2.540209   2.760681   2.750647   1.544541
    13  N    3.365011   2.493228   2.727128   3.405953   1.471788
    14  O    4.623506   2.653747   2.586868   2.582412   2.356310
    15  O    5.290130   3.860611   4.085209   4.068377   2.595432
    16  H    3.712682   4.601847   4.743710   4.720311   5.931433
    17  H    2.701849   4.171616   4.546113   4.520416   5.174480
    18  H    6.023301   4.411270   4.504615   4.488328   3.346047
    19  H    2.995474   2.520924   2.705866   3.549253   2.050607
    20  H    3.810523   3.316041   3.690075   4.132024   2.048302
                   11         12         13         14         15
    11  H    0.000000
    12  C    2.150762   0.000000
    13  N    2.100491   2.431141   0.000000
    14  O    3.047211   1.222389   3.339214   0.000000
    15  O    2.895458   1.373805   3.056613   2.229400   0.000000
    16  H    6.097893   7.141680   6.302868   7.074261   8.444372
    17  H    5.184427   6.590570   5.344089   6.819756   7.768991
    18  H    3.713035   1.885026   3.879021   2.231968   0.955435
    19  H    2.590277   3.270604   0.995947   4.023172   4.034748
    20  H    2.249088   2.854546   1.000270   3.950779   3.081431
                   16         17         18         19         20
    16  H    0.000000
    17  H    1.726846   0.000000
    18  H    9.008405   8.470121   0.000000
    19  H    5.611334   4.575885   4.836445   0.000000
    20  H    7.000848   5.871381   3.990604   1.621053   0.000000
 Stoichiometry    C5H10N2O3
 Framework group  C1[X(C5H10N2O3)]
 Deg. of freedom    54
 Full point group                 C1      NOp   1
 Largest Abelian subgroup         C1      NOp   1
 Largest concise Abelian subgroup C1      NOp   1
                         Standard orientation:                         
 ---------------------------------------------------------------------
 Center     Atomic      Atomic             Coordinates (Angstroms)
 Number     Number       Type             X           Y           Z
 ---------------------------------------------------------------------
      1          6           0       -2.654036   -0.222420    0.008879
      2          7           0       -3.900391    0.416908    0.162446
      3          8           0       -2.600185   -1.401801   -0.302541
      4          6           0       -1.392369    0.604450    0.243986
      5          1           0       -1.397968    1.431140   -0.443294
      6          1           0       -1.410565    0.988016    1.251352
      7          6           0       -0.136833   -0.269458    0.039026
      8          1           0       -0.126141   -0.656521   -0.961722
      9          1           0       -0.174919   -1.087019    0.732587
     10          6           0        1.154139    0.540627    0.286788
     11          1           0        1.137173    0.914376    1.299638
     12          6           0        2.401093   -0.352909    0.107048
     13          7           0        1.276854    1.662256   -0.658225
     14          8           0        2.192970   -1.516562   -0.204133
     15          8           0        3.703261    0.052752    0.271788
     16          1           0       -4.735681   -0.105321    0.013521
     17          1           0       -3.950347    1.378843    0.416638
     18          1           0        4.252058   -0.709483    0.096641
     19          1           0        0.379570    2.001429   -0.926095
     20          1           0        1.791252    2.413538   -0.244089
 ---------------------------------------------------------------------
 Rotational constants (GHZ):      3.2515323      0.5515505      0.4876245
 Standard basis: 6-31G(d) (6D, 7F)
 There are   170 symmetry adapted cartesian basis functions of A   symmetry.
 There are   170 symmetry adapted basis functions of A   symmetry.
   170 basis functions,   320 primitive gaussians,   170 cartesian basis functions
    39 alpha electrons       39 beta electrons
       nuclear repulsion energy       534.1464947513 Hartrees.
 NAtoms=   20 NActive=   20 NUniq=   20 SFac= 1.00D+00 NAtFMM=   60 NAOKFM=F Big=F
 Integral buffers will be    131072 words long.
 Raffenetti 1 integral format.
 Two-electron integral symmetry is turned on.
 One-electron integrals computed using PRISM.
 NBasis=   170 RedAO= T EigKep=  1.92D-03  NBF=   170
 NBsUse=   170 1.00D-06 EigRej= -1.00D+00 NBFU=   170
 Initial guess from the checkpoint file:  "glutamine.chk"
 B after Tr=     0.000000    0.000000    0.000000
         Rot=    0.999996    0.002146    0.001685    0.000463 Ang=   0.32 deg.
 ExpMin= 1.61D-01 ExpMax= 5.48D+03 ExpMxC= 8.25D+02 IAcc=1 IRadAn=         1 AccDes= 0.00D+00
 Harris functional with IExCor=  205 and IRadAn=       1 diagonalized for initial guess.
 HarFok:  IExCor=  205 AccDes= 0.00D+00 IRadAn=         1 IDoV= 1 UseB2=F ITyADJ=14
 ICtDFT=  3500011 ScaDFX=  1.000000  1.000000  1.000000  1.000000
 FoFCou: FMM=F IPFlag=           0 FMFlag=      100000 FMFlg1=           0
         NFxFlg=           0 DoJE=T BraDBF=F KetDBF=T FulRan=T
         wScrn=  0.000000 ICntrl=     500 IOpCl=  0 I1Cent=   200000004 NGrid=           0
         NMat0=    1 NMatS0=      1 NMatT0=    0 NMatD0=    1 NMtDS0=    0 NMtDT0=    0
 Petite list used in FoFCou.
 Requested convergence on RMS density matrix=1.00D-08 within 128 cycles.
 Requested convergence on MAX density matrix=1.00D-06.
 Requested convergence on             energy=1.00D-06.
 No special actions if energy rises.
 Integral accuracy reduced to 1.0D-05 until final iterations.
 Initial convergence to 1.0D-05 achieved.  Increase integral accuracy.
 SCF Done:  E(RHF) =  -528.653493001     A.U. after   14 cycles
            NFock= 14  Conv=0.49D-08     -V/T= 2.0027
 Calling FoFJK, ICntrl=      2127 FMM=F ISym2X=0 I1Cent= 0 IOpClX= 0 NMat=1 NMatS=1 NMatT=0.
 ***** Axes restored to original set *****
 -------------------------------------------------------------------
 Center     Atomic                   Forces (Hartrees/Bohr)
 Number     Number              X              Y              Z
 -------------------------------------------------------------------
      1        6           0.049886296    0.008006636    0.000343636
      2        7          -0.034644268    0.035291689   -0.000803869
      3        8          -0.023933248   -0.041087414    0.000646637
      4        6           0.010133399    0.014410800    0.001998988
      5        1           0.000333032   -0.008195965   -0.003067686
      6        1          -0.002055509   -0.006900086    0.003188050
      7        6          -0.013622373   -0.011218459   -0.000739031
      8        1           0.002880363    0.004574038   -0.001540668
      9        1           0.002797182    0.005540553    0.000781131
     10        6          -0.022500895   -0.005110360   -0.012539029
     11        1          -0.002505384    0.000305107    0.008417878
     12        6           0.041640318    0.067754323    0.000790014
     13        7           0.000225321    0.007969300    0.006202740
     14        8          -0.046178604   -0.031019025    0.001355862
     15        8           0.034230987   -0.036469637    0.000014780
     16        1          -0.002687693    0.001529011   -0.000074197
     17        1           0.004660704    0.000976177    0.000053540
     18        1           0.004359007   -0.004270588   -0.000903893
     19        1          -0.002564704   -0.001828948   -0.001376962
     20        1          -0.000453929   -0.000257153   -0.002747921
 -------------------------------------------------------------------
 Cartesian Forces:  Max     0.067754323 RMS     0.018698790

 GradGradGradGradGradGradGradGradGradGradGradGradGradGradGradGradGradGrad
 Berny optimization.
 Using GEDIIS/GDIIS optimizer.
 FormGI is forming the generalized inverse of G from B-inverse, IUseBI=4.
 Internal  Forces:  Max     0.054470918 RMS     0.013104088
 Search for a local minimum.
 Step number   2 out of a maximum of  102
 All quantities printed in internal units (Hartrees-Bohrs-Radians)
 Mixed Optimization -- RFO/linear search
 Update second derivatives using D2CorX and points    1    2
 DE= -5.19D-02 DEPred=-5.44D-02 R= 9.54D-01
 TightC=F SS=  1.41D+00  RLast= 3.11D-01 DXNew= 5.0454D-01 9.3227D-01
 Trust test= 9.54D-01 RLast= 3.11D-01 DXMaxT set to 5.05D-01
 ITU=  1  0
 Use linear search instead of GDIIS.
     Eigenvalues ---    0.00237   0.00237   0.00237   0.00238   0.00445
     Eigenvalues ---    0.00508   0.00766   0.00766   0.00766   0.01295
     Eigenvalues ---    0.03676   0.04027   0.04249   0.04642   0.04856
     Eigenvalues ---    0.04940   0.05293   0.06465   0.07941   0.08938
     Eigenvalues ---    0.11932   0.12488   0.15930   0.16000   0.16000
     Eigenvalues ---    0.16000   0.16176   0.17633   0.17803   0.20856
     Eigenvalues ---    0.21999   0.22143   0.25000   0.25000   0.27302
     Eigenvalues ---    0.28452   0.28519   0.28519   0.31185   0.35574
     Eigenvalues ---    0.37076   0.37150   0.37230   0.37230   0.37230
     Eigenvalues ---    0.38094   0.43553   0.47676   0.47688   0.47688
     Eigenvalues ---    0.48178   0.55499   0.77793   0.81289
 RFO step:  Lambda=-2.20637198D-02 EMin= 2.36823699D-03
 Quartic linear search produced a step of  0.94013.
 Iteration  1 RMS(Cart)=  0.10946833 RMS(Int)=  0.00671864
 Iteration  2 RMS(Cart)=  0.01485628 RMS(Int)=  0.00045088
 Iteration  3 RMS(Cart)=  0.00025273 RMS(Int)=  0.00040529
 Iteration  4 RMS(Cart)=  0.00000008 RMS(Int)=  0.00040529
 Variable       Old X    -DE/DX   Delta X   Delta X   Delta X     New X
                                 (Linear)    (Quad)   (Total)
    R1        2.66292  -0.04865  -0.10809  -0.05855  -0.16664   2.49628
    R2        2.30734  -0.04753  -0.06646  -0.01079  -0.07725   2.23009
    R3        2.88503  -0.00674  -0.02364   0.00134  -0.02230   2.86273
    R4        1.88273  -0.00273  -0.00658   0.00025  -0.00633   1.87640
    R5        1.88256  -0.00328  -0.00674  -0.00161  -0.00835   1.87421
    R6        2.03161   0.00646   0.00903   0.01597   0.02500   2.05661
    R7        2.03726   0.00654   0.01434   0.00717   0.02151   2.05877
    R8        2.91661  -0.00319   0.00605  -0.03112  -0.02507   2.89154
    R9        2.02776   0.00438   0.00541   0.01205   0.01746   2.04522
   R10        2.02728   0.00419   0.00496   0.01188   0.01684   2.04412
   R11        2.91792  -0.00632   0.00728  -0.05298  -0.04570   2.87221
   R12        2.04042   0.00761   0.01731   0.00729   0.02460   2.06501
   R13        2.91876  -0.01505   0.00807  -0.10911  -0.10104   2.81772
   R14        2.78128  -0.00323   0.00318  -0.02189  -0.01871   2.76257
   R15        2.30998  -0.05447  -0.06398  -0.03073  -0.09471   2.21527
   R16        2.59612  -0.04839  -0.09984  -0.04704  -0.14688   2.44924
   R17        1.88207   0.00025  -0.00720   0.01273   0.00553   1.88760
   R18        1.89024  -0.00005   0.00048  -0.00098  -0.00050   1.88973
   R19        1.80551  -0.00432  -0.00811  -0.00148  -0.00959   1.79592
    A1        2.10022   0.00588   0.00175   0.03826   0.04002   2.14024
    A2        2.05830  -0.01521  -0.03207  -0.04630  -0.07837   1.97993
    A3        2.12466   0.00933   0.03032   0.00804   0.03836   2.16302
    A4        2.07994  -0.00400  -0.01359  -0.01223  -0.02582   2.05412
    A5        2.10627   0.00525   0.01116   0.03084   0.04200   2.14827
    A6        2.09698  -0.00125   0.00243  -0.01860  -0.01618   2.08080
    A7        1.88991  -0.00373  -0.01949   0.00448  -0.01587   1.87403
    A8        1.89932  -0.00245  -0.01063  -0.00265  -0.01386   1.88546
    A9        1.92319   0.00443   0.01181   0.02039   0.03191   1.95510
   A10        1.90041  -0.00208  -0.00961  -0.02620  -0.03641   1.86400
   A11        1.93343   0.00290   0.02143  -0.00167   0.01983   1.95326
   A12        1.91694   0.00071   0.00593   0.00506   0.01110   1.92804
   A13        1.91368   0.00071   0.00286   0.01357   0.01614   1.92981
   A14        1.89312  -0.00105  -0.01646   0.02937   0.01304   1.90617
   A15        1.94095   0.00362   0.02851  -0.01976   0.00857   1.94952
   A16        1.90541  -0.00159  -0.00491  -0.02907  -0.03409   1.87132
   A17        1.90769  -0.00039  -0.00277   0.00778   0.00452   1.91221
   A18        1.90261  -0.00142  -0.00754  -0.00236  -0.00986   1.89276
   A19        1.89545  -0.00085  -0.01427   0.03392   0.01741   1.91286
   A20        1.93136  -0.00255   0.01949  -0.08162  -0.06174   1.86962
   A21        1.94604   0.00685   0.03329  -0.00206   0.02994   1.97597
   A22        1.89874  -0.00065  -0.01118  -0.00722  -0.01831   1.88043
   A23        1.91753   0.00113   0.00648   0.03567   0.04078   1.95831
   A24        1.87428  -0.00406  -0.03418   0.02107  -0.01292   1.86135
   A25        2.02961   0.03947   0.14752  -0.00277   0.14473   2.17434
   A26        2.19008  -0.05271  -0.12033  -0.14281  -0.26317   1.92691
   A27        2.06349   0.01324  -0.02719   0.14563   0.11841   2.18190
   A28        1.93597   0.00406   0.02382  -0.00732   0.01621   1.95217
   A29        1.92775   0.00349   0.01610   0.00367   0.01947   1.94723
   A30        1.89535  -0.00309  -0.01437   0.00385  -0.01105   1.88430
   A31        1.86177  -0.00783  -0.04594   0.01876  -0.02718   1.83459
    D1       -0.00029  -0.00003  -0.00028  -0.00014  -0.00042  -0.00071
    D2        3.14129  -0.00004  -0.00028  -0.00058  -0.00085   3.14044
    D3       -3.14154  -0.00003   0.00005  -0.00228  -0.00223   3.13942
    D4        0.00005  -0.00004   0.00005  -0.00271  -0.00266  -0.00261
    D5       -1.03155   0.00335   0.01703   0.01766   0.03421  -0.99735
    D6        1.03168  -0.00262  -0.01226  -0.01259  -0.02444   1.00724
    D7        3.13449  -0.00056  -0.00435   0.00444   0.00016   3.13465
    D8        2.11039   0.00335   0.01737   0.01549   0.03237   2.14276
    D9       -2.10956  -0.00261  -0.01193  -0.01476  -0.02628  -2.13583
   D10       -0.00675  -0.00056  -0.00402   0.00227  -0.00168  -0.00843
   D11        1.04087  -0.00110  -0.00677  -0.00028  -0.00706   1.03381
   D12       -1.03841   0.00102   0.00744   0.00954   0.01708  -1.02133
   D13       -3.13049   0.00124   0.00962   0.00569   0.01552  -3.11497
   D14       -1.05011  -0.00118  -0.00356  -0.01801  -0.02191  -1.07202
   D15       -3.12939   0.00095   0.01065  -0.00818   0.00222  -3.12717
   D16        1.06171   0.00117   0.01282  -0.01204   0.00067   1.06238
   D17        3.13305  -0.00090  -0.00885   0.01242   0.00360   3.13665
   D18        1.05377   0.00123   0.00536   0.02224   0.02774   1.08151
   D19       -1.03831   0.00144   0.00753   0.01839   0.02618  -1.01213
   D20        1.03808   0.00057  -0.00887   0.02954   0.02081   1.05889
   D21        3.12109  -0.00228  -0.01957  -0.00704  -0.02673   3.09436
   D22       -1.07716  -0.00460  -0.02846  -0.03616  -0.06479  -1.14195
   D23       -3.12978   0.00354   0.01081   0.03896   0.04995  -3.07983
   D24       -1.04677   0.00069   0.00011   0.00239   0.00240  -1.04437
   D25        1.03817  -0.00163  -0.00878  -0.02674  -0.03565   1.00251
   D26       -1.04836   0.00054  -0.00139   0.00689   0.00575  -1.04261
   D27        1.03464  -0.00231  -0.01209  -0.02968  -0.04179   0.99285
   D28        3.11958  -0.00463  -0.02099  -0.05881  -0.07985   3.03973
   D29        0.01145   0.00214   0.01084  -0.00013   0.01064   0.02208
   D30       -3.12625   0.00232   0.01450  -0.01529  -0.00080  -3.12705
   D31        2.09247  -0.00084  -0.00173  -0.01209  -0.01363   2.07884
   D32       -1.04522  -0.00066   0.00193  -0.02725  -0.02507  -1.07029
   D33       -2.11620  -0.00213  -0.02042   0.03819   0.01757  -2.09863
   D34        1.02929  -0.00195  -0.01676   0.02304   0.00613   1.03542
   D35        0.53278   0.00207  -0.00559   0.07220   0.06734   0.60012
   D36        2.63522   0.00317   0.00197   0.07466   0.07763   2.71285
   D37       -1.56955  -0.00208  -0.01305   0.00705  -0.00674  -1.57629
   D38        0.53288  -0.00098  -0.00549   0.00951   0.00355   0.53643
   D39        2.65125   0.00043   0.01704  -0.01605   0.00060   2.65184
   D40       -1.52950   0.00153   0.02460  -0.01359   0.01089  -1.51862
   D41        3.14044   0.00063   0.00068   0.03044   0.03120  -3.11155
   D42        0.00281   0.00076   0.00441   0.01533   0.01965   0.02246
         Item               Value     Threshold  Converged?
 Maximum Force            0.054471     0.000450     NO 
 RMS     Force            0.013104     0.000300     NO 
 Maximum Displacement     0.615029     0.001800     NO 
 RMS     Displacement     0.121045     0.001200     NO 
 Predicted change in Energy=-2.842607D-02
 GradGradGradGradGradGradGradGradGradGradGradGradGradGradGradGradGradGrad

                          Input orientation:                          
 ---------------------------------------------------------------------
 Center     Atomic      Atomic             Coordinates (Angstroms)
 Number     Number       Type             X           Y           Z
 ---------------------------------------------------------------------
      1          6           0       -1.066852   -0.599897   -0.159862
      2          7           0       -0.564989   -1.821136   -0.118824
      3          8           0       -0.389229    0.365917   -0.186316
      4          6           0       -2.581421   -0.570828   -0.171262
      5          1           0       -2.911225   -1.154546   -1.028540
      6          1           0       -2.935348   -1.090478    0.718465
      7          6           0       -3.127500    0.858048   -0.209133
      8          1           0       -2.772864    1.377450   -1.089925
      9          1           0       -2.762422    1.401632    0.651865
     10          6           0       -4.647026    0.879816   -0.182792
     11          1           0       -5.004428    0.411009    0.737320
     12          6           0       -5.065133    2.310813   -0.155680
     13          7           0       -5.252552    0.289094   -1.375059
     14          8           0       -4.325992    3.220448   -0.176984
     15          8           0       -6.357253    2.403338   -0.114577
     16          1           0        0.423602   -1.913746   -0.111030
     17          1           0       -1.127944   -2.637337   -0.095455
     18          1           0       -6.539437    3.335985   -0.127291
     19          1           0       -4.712831   -0.474270   -1.726807
     20          1           0       -6.176616   -0.045705   -1.190602
 ---------------------------------------------------------------------
                    Distance matrix (angstroms):
                    1          2          3          4          5
     1  C    0.000000
     2  N    1.320975   0.000000
     3  O    1.180114   2.195142   0.000000
     4  C    1.514891   2.373188   2.383993   0.000000
     5  H    2.112805   2.603219   3.062941   1.088312   0.000000
     6  H    2.122123   2.617922   3.069599   1.089457   1.748346
     7  C    2.524737   3.708456   2.782237   1.530138   2.183744
     8  H    2.772254   4.006083   2.742521   2.162493   2.536516
     9  H    2.745902   3.976042   2.721636   2.144970   3.062670
    10  C    3.873980   4.895126   4.288699   2.524128   2.804804
    11  H    4.163096   5.042229   4.706931   2.767758   3.154477
    12  C    4.945553   6.109473   5.064350   3.804329   4.172520
    13  N    4.448268   5.291923   5.007087   3.053446   2.772361
    14  O    5.021685   6.290159   4.862771   4.173408   4.676248
    15  O    6.083568   7.169136   6.306626   4.806847   5.036762
    16  H    1.987470   0.992949   2.421409   3.291993   3.541084
    17  H    2.039373   0.991791   3.094106   2.527608   2.499881
    18  H    6.741025   7.892402   6.830070   5.561566   5.843034
    19  H    3.970423   4.648037   4.666107   2.640445   2.048447
    20  H    5.242064   5.982577   5.888283   3.773623   3.452329
                    6          7          8          9         10
     6  H    0.000000
     7  C    2.166590   0.000000
     8  H    3.063877   1.082285   0.000000
     9  H    2.498990   1.081703   1.741989   0.000000
    10  C    2.761189   1.519910   2.140797   2.126188   0.000000
    11  H    2.556543   2.149064   3.041826   2.452595   1.092759
    12  C    4.107176   2.422355   2.645464   2.604077   1.491074
    13  N    3.414015   2.489767   2.722990   3.398074   1.461888
    14  O    4.617338   2.649218   2.577268   2.537683   2.362553
    15  O    4.960861   3.581643   3.853776   3.809679   2.291429
    16  H    3.556455   4.505861   4.691225   4.660953   5.789680
    17  H    2.514348   4.028506   4.451207   4.420778   4.976136
    18  H    5.770472   4.217605   4.353114   4.314470   3.101140
    19  H    3.085209   2.567427   2.756439   3.602941   2.054717
    20  H    3.904088   3.328237   3.690668   4.140795   2.052295
                   11         12         13         14         15
    11  H    0.000000
    12  C    2.100092   0.000000
    13  N    2.130393   2.368408   0.000000
    14  O    3.031365   1.172272   3.299506   0.000000
    15  O    2.554455   1.296080   2.698000   2.190339   0.000000
    16  H    5.965541   6.926406   6.218440   6.994493   8.038483
    17  H    5.001305   6.323707   5.216682   6.674415   7.263225
    18  H    3.414571   1.795928   3.535045   2.217016   0.950360
    19  H    2.634516   3.217024   0.998875   4.025238   3.685653
    20  H    2.302064   2.803504   1.000004   3.888443   2.681095
                   16         17         18         19         20
    16  H    0.000000
    17  H    1.712052   0.000000
    18  H    8.720313   8.060140   0.000000
    19  H    5.573667   4.493504   4.518074   0.000000
    20  H    6.943913   5.779705   3.563439   1.616741   0.000000
 Stoichiometry    C5H10N2O3
 Framework group  C1[X(C5H10N2O3)]
 Deg. of freedom    54
 Full point group                 C1      NOp   1
 Largest Abelian subgroup         C1      NOp   1
 Largest concise Abelian subgroup C1      NOp   1
                         Standard orientation:                         
 ---------------------------------------------------------------------
 Center     Atomic      Atomic             Coordinates (Angstroms)
 Number     Number       Type             X           Y           Z
 ---------------------------------------------------------------------
      1          6           0       -2.632120   -0.215414    0.004083
      2          7           0       -3.728747    0.497920    0.187222
      3          8           0       -2.657975   -1.354812   -0.302143
      4          6           0       -1.357009    0.572537    0.223442
      5          1           0       -1.381903    1.425626   -0.451867
      6          1           0       -1.377770    0.972316    1.236685
      7          6           0       -0.108397   -0.286440    0.012619
      8          1           0       -0.088627   -0.688515   -0.992012
      9          1           0       -0.135219   -1.126678    0.693326
     10          6           0        1.165666    0.501135    0.270721
     11          1           0        1.175139    0.854305    1.304793
     12          6           0        2.307195   -0.443312    0.102700
     13          7           0        1.375886    1.586578   -0.685698
     14          8           0        2.198861   -1.571193   -0.197915
     15          8           0        3.431147    0.161898    0.326919
     16          1           0       -4.601951    0.043283    0.057733
     17          1           0       -3.714987    1.455397    0.445484
     18          1           0        4.100978   -0.494671    0.173853
     19          1           0        0.513714    2.001239   -0.972867
     20          1           0        1.952388    2.308032   -0.302086
 ---------------------------------------------------------------------
 Rotational constants (GHZ):      3.2717917      0.5838518      0.5142778
 Standard basis: 6-31G(d) (6D, 7F)
 There are   170 symmetry adapted cartesian basis functions of A   symmetry.
 There are   170 symmetry adapted basis functions of A   symmetry.
   170 basis functions,   320 primitive gaussians,   170 cartesian basis functions
    39 alpha electrons       39 beta electrons
       nuclear repulsion energy       547.3325332958 Hartrees.
 NAtoms=   20 NActive=   20 NUniq=   20 SFac= 1.00D+00 NAtFMM=   60 NAOKFM=F Big=F
 Integral buffers will be    131072 words long.
 Raffenetti 1 integral format.
 Two-electron integral symmetry is turned on.
 One-electron integrals computed using PRISM.
 NBasis=   170 RedAO= T EigKep=  1.86D-03  NBF=   170
 NBsUse=   170 1.00D-06 EigRej= -1.00D+00 NBFU=   170
 Initial guess from the checkpoint file:  "glutamine.chk"
 B after Tr=     0.000000    0.000000    0.000000
         Rot=    0.999962    0.005893    0.001613    0.006256 Ang=   1.00 deg.
 ExpMin= 1.61D-01 ExpMax= 5.48D+03 ExpMxC= 8.25D+02 IAcc=1 IRadAn=         1 AccDes= 0.00D+00
 Harris functional with IExCor=  205 and IRadAn=       1 diagonalized for initial guess.
 HarFok:  IExCor=  205 AccDes= 0.00D+00 IRadAn=         1 IDoV= 1 UseB2=F ITyADJ=14
 ICtDFT=  3500011 ScaDFX=  1.000000  1.000000  1.000000  1.000000
 FoFCou: FMM=F IPFlag=           0 FMFlag=      100000 FMFlg1=           0
         NFxFlg=           0 DoJE=T BraDBF=F KetDBF=T FulRan=T
         wScrn=  0.000000 ICntrl=     500 IOpCl=  0 I1Cent=   200000004 NGrid=           0
         NMat0=    1 NMatS0=      1 NMatT0=    0 NMatD0=    1 NMtDS0=    0 NMtDT0=    0
 Petite list used in FoFCou.
 Requested convergence on RMS density matrix=1.00D-08 within 128 cycles.
 Requested convergence on MAX density matrix=1.00D-06.
 Requested convergence on             energy=1.00D-06.
 No special actions if energy rises.
 Integral accuracy reduced to 1.0D-05 until final iterations.
 Initial convergence to 1.0D-05 achieved.  Increase integral accuracy.
 SCF Done:  E(RHF) =  -528.669004315     A.U. after   14 cycles
            NFock= 14  Conv=0.57D-08     -V/T= 2.0008
 Calling FoFJK, ICntrl=      2127 FMM=F ISym2X=0 I1Cent= 0 IOpClX= 0 NMat=1 NMatS=1 NMatT=0.
 ***** Axes restored to original set *****
 -------------------------------------------------------------------
 Center     Atomic                   Forces (Hartrees/Bohr)
 Number     Number              X              Y              Z
 -------------------------------------------------------------------
      1        6          -0.032631487   -0.001914035   -0.000273640
      2        7           0.016914164   -0.033433404    0.001114250
      3        8           0.020866833    0.033445462   -0.000703398
      4        6          -0.001623462    0.007356786    0.000808786
      5        1           0.000452381    0.000161377    0.001473602
      6        1          -0.000570887   -0.000115107   -0.001238282
      7        6           0.001539835   -0.014996676   -0.001221861
      8        1           0.000592635   -0.000779688    0.001232278
      9        1           0.001261101   -0.000009508   -0.002062868
     10        6           0.008340099   -0.009377401   -0.001839512
     11        1           0.000572000    0.000225194   -0.001124217
     12        6           0.008467751   -0.033850438   -0.000382969
     13        7           0.002519991   -0.001420821    0.000025069
     14        8           0.012050372    0.035261410    0.000759678
     15        8          -0.030062111    0.019006607    0.002792057
     16        1           0.002315902   -0.003095639    0.000136543
     17        1           0.000748534   -0.001117243    0.000086362
     18        1          -0.010238335    0.003024141   -0.000177436
     19        1          -0.001146154   -0.000153843    0.001168157
     20        1          -0.000369160    0.001782827   -0.000572598
 -------------------------------------------------------------------
 Cartesian Forces:  Max     0.035261410 RMS     0.011912610

 GradGradGradGradGradGradGradGradGradGradGradGradGradGradGradGradGradGrad
 Berny optimization.
 Using GEDIIS/GDIIS optimizer.
 FormGI is forming the generalized inverse of G from B-inverse, IUseBI=4.
 Internal  Forces:  Max     0.042435705 RMS     0.009828392
 Search for a local minimum.
 Step number   3 out of a maximum of  102
 All quantities printed in internal units (Hartrees-Bohrs-Radians)
 Mixed Optimization -- RFO/linear search
 Update second derivatives using D2CorX and points    2    3
 DE= -1.55D-02 DEPred=-2.84D-02 R= 5.46D-01
 TightC=F SS=  1.41D+00  RLast= 4.97D-01 DXNew= 8.4853D-01 1.4915D+00
 Trust test= 5.46D-01 RLast= 4.97D-01 DXMaxT set to 8.49D-01
 ITU=  1  1  0
 Use linear search instead of GDIIS.
     Eigenvalues ---    0.00237   0.00237   0.00237   0.00237   0.00445
     Eigenvalues ---    0.00504   0.00764   0.00766   0.00766   0.01295
     Eigenvalues ---    0.03543   0.03832   0.03969   0.04639   0.04761
     Eigenvalues ---    0.05115   0.05226   0.06553   0.08107   0.09319
     Eigenvalues ---    0.12053   0.12737   0.15638   0.16000   0.16000
     Eigenvalues ---    0.16022   0.16171   0.16948   0.18250   0.21451
     Eigenvalues ---    0.21996   0.22900   0.25000   0.25137   0.27174
     Eigenvalues ---    0.28512   0.28519   0.28767   0.35276   0.36879
     Eigenvalues ---    0.37102   0.37230   0.37230   0.37230   0.37791
     Eigenvalues ---    0.38797   0.47429   0.47678   0.47688   0.47854
     Eigenvalues ---    0.48573   0.55595   0.79917   0.88389
 RFO step:  Lambda=-8.71342277D-03 EMin= 2.36719716D-03
 Quartic linear search produced a step of -0.30104.
 Iteration  1 RMS(Cart)=  0.09969797 RMS(Int)=  0.00209621
 Iteration  2 RMS(Cart)=  0.00376385 RMS(Int)=  0.00025461
 Iteration  3 RMS(Cart)=  0.00000538 RMS(Int)=  0.00025457
 Iteration  4 RMS(Cart)=  0.00000000 RMS(Int)=  0.00025457
 Variable       Old X    -DE/DX   Delta X   Delta X   Delta X     New X
                                 (Linear)    (Quad)   (Total)
    R1        2.49628   0.04244   0.05016   0.02334   0.07351   2.56979
    R2        2.23009   0.03937   0.02325   0.01237   0.03562   2.26571
    R3        2.86273   0.00833   0.00671   0.01189   0.01861   2.88134
    R4        1.87640   0.00260   0.00191   0.00184   0.00375   1.88015
    R5        1.87421   0.00050   0.00251  -0.00187   0.00065   1.87486
    R6        2.05661  -0.00138  -0.00753   0.00633  -0.00120   2.05542
    R7        2.05877  -0.00077  -0.00648   0.00584  -0.00064   2.05814
    R8        2.89154   0.00114   0.00755  -0.00733   0.00022   2.89176
    R9        2.04522  -0.00118  -0.00526   0.00408  -0.00118   2.04404
   R10        2.04412  -0.00122  -0.00507   0.00380  -0.00127   2.04286
   R11        2.87221   0.01008   0.01376   0.00562   0.01938   2.89159
   R12        2.06501  -0.00123  -0.00741   0.00599  -0.00141   2.06360
   R13        2.81772   0.02810   0.03042   0.02643   0.05684   2.87456
   R14        2.76257  -0.00101   0.00563  -0.00911  -0.00348   2.75909
   R15        2.21527   0.03495   0.02851   0.00234   0.03085   2.24612
   R16        2.44924   0.04183   0.04422   0.02095   0.06516   2.51440
   R17        1.88760  -0.00091  -0.00167   0.00119  -0.00047   1.88713
   R18        1.88973  -0.00036   0.00015  -0.00073  -0.00058   1.88916
[...]
 450067,0.02145577,0.70472897,0.00129386,-0.00002262,-0.00098320,-0.000
 00913,-0.00022840,0.00031475,-0.00049871,-0.00024467,0.00033741,0.0043
 4511,0.00418255,-0.01232811,0.00027601,-0.00081996,0.00047401,-0.00027
 853,0.00296125,-0.00026093,-0.08861252,-0.02925049,0.07691139,0.094774
 61,-0.00240266,0.00004692,0.00045404,0.00048503,0.00020544,-0.00057768
 ,0.00052808,0.00062337,0.00022070,-0.01047778,-0.01301858,0.03331674,-
 0.00092981,0.00163943,-0.00062086,0.00314217,-0.00698372,0.00093360,-0
 .02974110,-0.09054749,0.08378874,0.02764794,0.09805645,0.00110772,0.00
 082603,-0.00044069,-0.00066085,0.00003217,0.00027183,-0.00111693,-0.00
 030311,0.00027222,-0.00023916,0.00021146,-0.00143880,-0.00029960,0.000
 55293,0.00107784,-0.00025112,0.00004351,0.00153524,0.08102013,0.084111
 36,-0.29068141,-0.08838501,-0.09465459,0.30952636,0.00034086,0.0021143
 3,0.00223170,0.00007004,-0.00074715,-0.00082546,-0.00177902,-0.0001319
 7,-0.00061527,0.00572828,0.00778749,0.01005400,-0.00106083,0.00335030,
 -0.00059908,0.00016648,-0.00065877,-0.00022910,-0.11030391,-0.07161421
 ,-0.08347829,0.00629571,0.00872520,0.00917936,0.12006139,-0.00223511,-
 0.00227791,-0.00406931,0.00011558,0.00094953,0.00067532,-0.00041489,0.
 00291273,0.00203512,-0.01255464,-0.02296824,-0.02653792,0.00266784,-0.
 00643441,0.00186182,-0.00058898,0.00107822,0.00036281,-0.07105782,-0.1
 5814424,-0.12257891,0.00655360,0.00881617,0.00912706,0.07386631,0.1736
 6823,-0.00156336,-0.00160590,-0.00067706,0.00015671,0.00006364,0.00011
 915,-0.00041275,0.00217533,0.00001555,0.00418759,0.00342724,0.00563012
 ,-0.00094244,0.00184594,0.00112907,0.00054714,-0.00055581,0.00068253,-
 0.08467062,-0.12244632,-0.21256672,-0.01365109,-0.01903920,-0.02171723
 ,0.09326160,0.13375708,0.22259453,-0.00171556,0.00064193,0.00051734,0.
 00111797,-0.00079095,-0.00050851,0.00132339,-0.00060800,0.00041932,-0.
 01111369,0.00567580,-0.00042627,0.00063318,-0.00170995,-0.00056761,0.0
 0086818,-0.00146735,0.00080601,-0.22117501,0.01073040,0.01851126,-0.01
 418293,0.00086917,0.00003504,-0.01207840,0.00064032,0.00267544,0.62604
 639,-0.00296643,-0.01032960,-0.00134946,0.00324901,0.00026471,-0.00003
 261,0.00043119,0.00240421,0.00058072,0.04189102,-0.00189291,0.00081256
 ,-0.00014492,-0.00030466,-0.00111826,-0.00006491,0.00217861,-0.0001849
 7,0.00713455,-0.10114081,-0.00142801,-0.01180031,0.00142576,-0.0007585
 7,-0.02278820,0.00261279,0.00396387,-0.00739433,0.60220921,-0.00052218
 ,0.00119197,-0.00073580,-0.00058355,0.00004994,0.00010903,-0.00075311,
 0.00058549,0.00003383,-0.00633243,0.00044364,-0.00025183,0.00096137,-0
 .00092197,-0.00048849,-0.00159714,0.00091711,0.00028465,0.01205463,-0.
 00105710,-0.09820024,0.03778159,-0.00347784,-0.00235238,-0.02884336,0.
 00316328,0.00233395,-0.01580294,-0.01485145,0.60174934,0.00015745,-0.0
 0051915,-0.00028618,0.00013815,0.00009611,-0.00004276,0.00001251,0.000
 26431,-0.00017383,0.00189506,-0.00124228,0.00059612,-0.00002326,0.0001
 2717,-0.00002381,0.00010179,0.00106939,-0.00072334,-0.01295487,-0.0118
 2538,0.03603194,-0.00799058,0.00124774,0.00031587,0.00140686,-0.000420
 93,-0.00058329,-0.09022769,-0.01986784,0.07403508,0.09517820,0.0001646
 3,0.00012210,0.00009447,-0.00009040,0.00002270,0.00002020,-0.00005840,
 -0.00005403,-0.00004398,-0.00019971,0.00070870,-0.00136099,0.00002781,
 -0.00000533,-0.00000678,-0.00001795,0.00008673,0.00011123,0.00152560,0
 .00232020,-0.00382014,0.00108463,0.00043065,-0.00038582,-0.00031929,0.
 00019933,0.00048800,-0.01820615,-0.08897979,0.07184793,0.02562497,0.08
 891281,-0.00003138,-0.00021188,0.00028261,-0.00005708,0.00003031,0.000
 03938,0.00007634,-0.00000385,0.00010561,-0.00030067,-0.00027479,0.0000
 4311,-0.00013053,0.00017268,0.00012406,0.00028616,-0.00075567,0.000336
 59,0.00077102,0.00189456,-0.00139983,0.00016741,0.00007606,0.00134663,
 0.00080901,0.00024660,0.00067680,0.07600600,0.06660088,-0.26476910,-0.
 07819857,-0.06778376,0.30042050,-0.00081747,0.00399901,0.00102220,0.00
 021504,-0.00124701,-0.00034016,0.00038548,-0.00170547,-0.00031133,-0.0
 0838318,-0.00180462,0.00031979,0.00042125,-0.00108129,-0.00007827,0.00
 036567,-0.00098211,0.00017426,-0.01105153,0.04103309,-0.00629614,-0.00
 062373,0.00116080,0.00162514,-0.00168050,0.00060228,-0.00206813,-0.107
 13800,0.05444802,-0.00343537,0.00386389,-0.01738879,0.00486641,0.87848
 729,0.00423145,0.00162272,0.00071466,-0.00215629,0.00051309,0.00024508
 ,-0.00263517,-0.00088583,-0.00108619,-0.00588256,-0.00093326,-0.000507
 66,0.00035831,-0.00046709,0.00007794,0.00045551,-0.00073226,0.00023542
 ,0.01554020,0.00012072,0.00166131,-0.00253602,0.00064116,0.00238856,-0
 .00178063,0.00020530,-0.00206269,0.03438710,-0.21087952,0.01314969,0.0
 0145676,-0.00509147,0.00343274,0.25099500,1.08122786,-0.00034203,0.000
 08440,0.00077426,0.00015414,-0.00011676,-0.00023090,0.00015627,-0.0001
 8306,-0.00019410,0.00074177,0.00028407,-0.00003567,-0.00023791,0.00001
 897,0.00008322,-0.00004372,-0.00035826,0.00032095,0.00020747,-0.003901
 18,-0.00055034,0.00132410,-0.00117282,0.00001049,-0.00126005,0.0007516
 2,-0.00003096,-0.00332952,0.02172381,-0.11231570,-0.01041855,0.0400360
 3,-0.00677488,0.03652748,-0.03915246,0.29350573,0.00182117,-0.00205715
 ,-0.00088259,-0.00067155,0.00086871,0.00025931,-0.00154937,0.00093740,
 -0.00022034,0.00094451,-0.00024182,0.00095191,-0.00078076,-0.00056753,
 -0.00081995,0.00000374,0.00022397,-0.00052609,-0.01993978,-0.02736333,
 -0.03641078,0.00383301,0.00017287,-0.00029447,-0.00889410,0.00162609,0
 .00012744,-0.13737840,-0.01974245,-0.07555832,0.00673554,0.00260965,-0
 .00208959,0.00362567,-0.00263863,0.01037651,0.70165609,-0.00022323,-0.
 00004968,-0.00015483,-0.00000044,0.00005578,0.00002125,0.00028804,0.00
 010186,0.00016176,-0.00031776,0.00055394,0.00075456,-0.00059993,0.0006
 1370,-0.00022728,0.00011032,0.00007180,-0.00004647,-0.00020542,0.00542
 865,0.00405705,0.00048456,-0.00045065,-0.00004480,0.00284104,0.0001944
 3,-0.00053174,-0.01136091,-0.15372208,-0.09007709,0.00073912,0.0068639
 5,-0.00504785,-0.02219542,-0.02465921,-0.03730610,-0.08151355,0.729908
 44,0.00099590,-0.00079624,-0.00026892,-0.00062730,0.00045610,0.0004101
 6,-0.00038962,0.00045303,0.00026768,0.00011588,-0.00084266,-0.00072783
 ,-0.00006937,0.00048996,0.00025008,0.00028821,-0.00036600,0.00013685,-
 0.00461953,-0.00232387,-0.00022410,-0.00074738,0.00030851,0.00179254,0
 .00059070,0.00045369,0.00075700,-0.03972994,-0.04542937,-0.17008461,-0
 .02399464,-0.03111037,-0.03421988,0.00090346,-0.00083358,0.00261492,0.
 11799389,0.02963296,0.27742194,0.00060222,-0.00133296,-0.00054353,-0.0
 0033579,0.00065272,0.00019690,-0.00010420,0.00081133,0.00011821,0.0021
 3601,0.00069298,0.00017670,-0.00027615,0.00088004,0.00010597,-0.000243
 28,0.00062137,-0.00024185,-0.00320077,0.00056704,-0.00074135,0.0010442
 4,-0.00005395,-0.00183094,0.00138466,0.00121209,0.00211703,0.00750691,
 -0.00438578,0.00016575,0.00062245,0.00110960,-0.00110302,-0.40659977,-
 0.38260426,0.00115481,0.00212092,0.00053359,0.00007838,0.49456298,-0.0
 0292357,-0.00062976,-0.00065256,0.00128957,-0.00025384,-0.00012868,0.0
 0184431,0.00066332,0.00080829,0.00136384,0.00053169,0.00010934,-0.0001
 5582,0.00010747,0.00005640,-0.00013293,0.00026311,-0.00023272,-0.00559
 505,0.00015419,0.00014533,0.00108382,-0.00046639,-0.00074627,0.0010634
 7,-0.00149134,0.00025336,-0.03479249,-0.02731623,0.00293703,0.00172995
 ,-0.00798368,0.00151393,-0.36180899,-0.66683773,0.01102745,0.00405078,
 -0.00990618,-0.00010710,0.45547024,0.69216078,0.00010545,-0.00025287,-
 0.00043277,-0.00013203,0.00010230,0.00020227,-0.00005505,0.00018530,0.
 00024387,-0.00013255,0.00000677,0.00087520,0.00001665,0.00021299,-0.00
 005230,0.00009236,-0.00016864,-0.00003080,-0.00057464,0.00049177,-0.00
 226698,-0.00059623,0.00027222,0.00087815,0.00074265,0.00046230,0.00062
 529,0.00250291,0.00334390,0.02926393,0.00108043,-0.00540509,0.00021627
 ,0.00019516,0.01010741,-0.09540328,-0.00270683,0.00570839,-0.00132269,
 0.00400576,-0.01014249,0.03782488,0.00220740,-0.00038825,-0.00028026,-
 0.00130319,0.00095315,0.00028589,-0.00101135,0.00052445,-0.00023492,-0
 .00181232,-0.00060507,-0.00002600,-0.00006616,0.00057988,0.00020226,0.
 00006293,0.00010750,-0.00014881,0.00174732,0.00390977,-0.00058460,0.00
 020755,-0.00039935,-0.00039420,0.00106216,-0.00049063,0.00075770,-0.02
 256723,0.00107405,-0.00367827,-0.00060003,0.00264009,-0.00058776,-0.32
 919308,0.02284112,-0.02165996,0.00006304,0.00155182,0.00064002,-0.1084
 9393,-0.05323910,-0.00755574,0.53595404,-0.00227492,-0.00101516,-0.000
 24891,0.00125096,-0.00038992,-0.00015276,0.00124905,0.00033524,0.00052
 837,0.00400832,0.00091451,-0.00002102,-0.00014320,0.00001570,-0.000065
 00,-0.00020986,0.00025758,-0.00000101,-0.00224429,-0.00915629,0.001224
 04,0.00037230,-0.00006431,-0.00062442,0.00003634,0.00010350,0.00046634
 ,0.04609769,-0.00412314,0.00315308,0.00025119,0.00022844,-0.00000046,0
 .05491072,-0.16950182,0.01214491,0.00082271,-0.00330246,-0.00115047,-0
 .06845383,0.02487355,-0.00459457,-0.09945181,0.71212650,0.00031877,0.0
 0000999,-0.00016255,-0.00022588,0.00012486,0.00011688,-0.00011520,0.00
 008337,0.00007289,-0.00052609,-0.00018035,-0.00001226,-0.00001457,0.00
 012578,0.00005776,0.00002835,0.00000061,-0.00002727,0.00060144,0.00168
 856,0.00098467,-0.00030152,-0.00003303,-0.00003269,0.00017298,0.000010
 46,-0.00004358,-0.00908575,0.00148094,0.01166701,0.00068779,-0.0028933
 9,0.00134371,-0.02558574,0.00864808,-0.08303893,-0.00050121,-0.0000491
 3,0.00129964,-0.00633805,-0.00284370,0.03531737,0.04848951,-0.06512317
 ,0.05789551,-0.01776585,-0.00103009,-0.00163358,-0.51751278,0.01642228
 ,-0.03493667,0.00285911,-0.00290053,-0.00187926,0.00120544,0.00303710,
 0.00109348,0.00053803,-0.00019045,-0.00010866,-0.00029607,-0.00004068,
 0.00012702,-0.00081460,-0.00034231,0.00018808,-0.00000504,0.00001773,-
 0.00003271,-0.00003589,0.00008967,0.00001264,0.00000888,0.00030827,-0.
 00001550,0.00002108,-0.00000807,0.00000185,-0.00015623,0.00004123,-0.0
 0000917,0.00008632,-0.00001900,0.00001384,0.00005025,-0.00005418,0.000
 00809,0.00005306,-0.00001506,0.00000297,0.53616916,0.03710694,0.004092
 90,0.00649804,0.00292640,-0.04508594,-0.04143894,-0.00567327,-0.000447
 98,0.00475092,0.00166169,0.00000593,-0.00664738,-0.00030003,0.00018236
 ,0.00022500,0.00152490,-0.00036025,0.00000933,0.00035358,0.00019135,0.
 00007244,0.00004709,-0.00014805,0.00010116,0.00001795,0.00003101,-0.00
 004239,0.00011412,-0.00019881,0.00007709,-0.00009287,0.00000670,0.0000
 4399,0.00022427,0.00011629,0.00002518,-0.00008073,-0.00002501,0.000038
 35,-0.00012574,-0.00009127,0.00001317,-0.00008951,-0.00002705,0.000002
 38,-0.01709219,0.04163672,0.02443436,0.00882150,0.01004200,-0.02545419
 ,-0.04384783,-0.05730182,-0.00424132,0.00249180,-0.00405816,-0.0003903
 0,-0.00690392,0.00202806,0.00004734,0.00038182,0.00046887,-0.00065671,
 0.00052579,-0.00007237,0.00165265,0.00072809,0.00004654,-0.00004031,0.
 00003380,-0.00001740,-0.00006942,0.00003693,-0.00005400,-0.00017872,-0
 .00061208,0.00009105,0.00004704,0.00001141,-0.00004234,-0.00000697,0.0
 0018710,-0.00001309,0.00006358,0.00001942,0.00000102,0.00006564,-0.000
 07527,-0.00002284,0.00017437,-0.00014111,0.00001214,0.03335641,0.02996
 613,0.04685429,0.01952748,0.00208174,0.01468247,-0.17788569,-0.0844050
 0,-0.15312246,-0.00046749,0.00783077,0.00397677,-0.00023775,0.00057765
 ,0.00130624,-0.00257076,0.00104056,0.00013604,-0.00012752,0.00007016,-
 0.00021031,-0.00023324,-0.00030150,-0.00056822,0.00006282,0.00000455,0
 .00006651,0.00030888,-0.00033017,0.00009109,-0.00001782,-0.00000539,0.
 00009187,-0.00000812,-0.00000441,-0.00002709,-0.00001219,0.00022868,-0
 .00001469,0.00006948,-0.00005180,-0.00005617,-0.00000966,-0.00018248,0
 .00001010,0.00005711,-0.00010138,0.00000183,-0.00435216,-0.02054307,-0
 .02878089,0.16605014,-0.01972823,-0.01531503,-0.01365092,-0.08126291,-
 0.13903557,-0.20020000,0.00525019,0.00024923,-0.00617761,-0.00056286,-
 0.00133304,0.00138783,0.00106525,0.00089416,0.00021716,-0.00070055,0.0
 0060594,0.00063419,0.00018135,0.00001165,-0.00002203,0.00008832,-0.000
 23240,0.00007584,-0.00004894,0.00007221,0.00001911,0.00018425,0.000004
 99,0.00004095,-0.00006296,0.00000030,0.00001256,0.00028323,-0.00016957
 ,-0.00002407,-0.00024948,-0.00001493,-0.00002154,-0.00015105,0.0000947
 3,0.00002638,-0.00024738,0.00012063,-0.00001315,0.00176397,0.00012616,
 0.00837547,0.09406344,0.15385406,-0.01271507,0.00492855,-0.01121541,-0
 .15515006,-0.21650980,-0.30550076,0.00153369,-0.00592529,0.00233543,-0
 .00033879,0.00147558,-0.00068551,0.00039565,0.00028864,0.00133512,0.00
 023010,-0.00019800,-0.00006633,-0.00009913,-0.00038094,0.00062487,-0.0
 0003331,0.00019068,-0.00011449,-0.00008356,0.00023982,0.00001273,0.000
 13136,0.00025898,0.00001489,0.00003406,-0.00002073,-0.00003579,-0.0000
 2163,-0.00019225,0.00004409,0.00000097,-0.00003509,-0.00018076,-0.0000
 0814,0.00013347,-0.00004247,-0.00007109,0.00009755,-0.00004016,0.00381
 386,0.00636836,0.00202500,0.16236152,0.20929516,0.31133931,-0.00016182
 ,0.00036779,0.00009375,0.00006039,-0.00014336,-0.00003007,0.00009678,-
 0.00014074,-0.00000288,-0.00060014,-0.00014934,-0.00000879,0.00000905,
 -0.00001932,0.00001839,0.00002038,-0.00006138,0.00001081,0.00026846,0.
 00195133,-0.00042473,-0.00003211,0.00002486,0.00013988,-0.00005607,-0.
 00000120,-0.00015026,-0.00811547,-0.00146753,-0.00060071,0.00016791,-0
 .00016854,-0.00027739,-0.01570612,0.07031129,-0.00813008,0.00038611,-0
 .00163148,-0.00037448,0.00849580,-0.00712686,0.00188525,-0.07678444,0.
 05908189,-0.00961133,-0.00001907,0.00002536,-0.00000544,-0.00001129,0.
 00003726,-0.00000379,0.09123811,0.00027671,-0.00006193,-0.00000074,-0.
 00013216,0.00007493,0.00002745,-0.00017129,0.00001102,-0.00005727,-0.0
 0002035,0.00007358,0.00002184,0.00000040,0.00001970,-0.00000373,0.0000
 0494,0.00000795,-0.00000884,-0.00025320,-0.00002878,0.00012249,0.00002
 898,-0.00001717,-0.00002697,0.00009477,-0.00000101,0.00004723,0.000338
 03,0.00221523,-0.00015773,-0.00020773,-0.00009581,0.00025991,0.0115183
 0,-0.00495937,0.00186146,-0.00021913,0.00063006,0.00004417,-0.00774776
 ,-0.00280139,-0.00109044,0.11804922,-0.54940612,0.05833848,0.00001126,
 -0.00000558,0.00001146,0.00001892,-0.00002061,-0.00000899,-0.12161874,
 0.55461815,-0.00001554,0.00010665,0.00008697,0.00004102,-0.00003527,-0
 .00006453,-0.00000128,-0.00004895,-0.00008164,-0.00006704,-0.00004082,
 0.00002048,0.00000566,-0.00002011,-0.00000538,0.00000099,0.00004411,-0
 .00003456,0.00009252,0.00042369,0.00035755,0.00003177,-0.00001476,-0.0
 0001885,-0.00002466,0.00000806,-0.00004026,-0.00213266,-0.00017063,0.0
 0530838,0.00032855,-0.00101835,0.00012014,-0.00221148,0.00640370,0.004
 52520,-0.00010136,0.00024610,-0.00051607,0.00192772,-0.00101475,-0.006
 69076,-0.01555713,0.05430089,-0.02455645,-0.00000257,-0.00000846,0.000
 01342,0.00000052,-0.00000664,0.00001895,0.01688412,-0.05942401,0.02119
 363,-0.00155187,0.00031630,-0.00000290,0.00046342,-0.00020903,-0.00000
 809,0.00110378,0.00043424,0.00058799,-0.00059661,-0.00064460,-0.001497
 30,-0.00247909,0.00121016,0.00029835,0.00001794,0.00005038,-0.00004656
 ,0.00057345,-0.00118662,0.00050596,-0.00021369,-0.00006862,-0.00004109
 ,0.00008395,0.00034667,-0.00001414,0.00529607,-0.02141236,0.00609875,0
 .00025885,0.00096595,-0.00038839,-0.00440620,0.00074059,-0.00430013,-0
 .07250197,0.03080458,-0.02670506,0.00021197,-0.00242968,0.00100837,0.0
 0073982,0.00119719,0.00090366,-0.00003630,-0.00000119,-0.00002141,-0.0
 0013265,0.00010397,0.00002805,0.00018733,-0.00002951,0.00031554,0.0751
 5170,-0.00063985,0.00038785,0.00015673,0.00019146,-0.00019877,-0.00002
 321,0.00047548,0.00008286,0.00020007,0.00058536,-0.00022628,-0.0005059
 1,0.00110320,0.00083856,0.00064811,-0.00010890,0.00004554,0.00005704,-
 0.00021811,-0.00038722,-0.00017540,0.00001621,-0.00006867,-0.00006920,
 0.00007606,0.00004895,-0.00005682,0.00411110,-0.02112911,0.00908299,0.
 00093065,0.00213300,0.00019747,-0.00285938,0.00095656,-0.00413839,0.05
 905951,-0.46685918,0.06325648,-0.00009284,-0.00166171,0.00067556,0.000
 28257,-0.00000747,0.00024640,-0.00000770,0.00000083,-0.00002062,0.0000
 1294,0.00008600,-0.00000114,-0.00011975,0.00011741,0.00001959,-0.06004
 498,0.49208732,-0.00029267,0.00020422,-0.00030509,0.00028814,-0.000162
 26,-0.00015241,0.00002121,-0.00013248,-0.00005942,-0.00055679,0.000661
 94,0.00141876,0.00002631,-0.00055213,0.00002720,-0.00023434,0.00015065
 ,-0.00077469,0.00047136,0.00091378,0.00086269,0.00013712,0.00024523,-0
 .00006358,0.00030541,-0.00007065,-0.00022522,0.00525637,-0.03908093,0.
 00235502,0.00151413,0.00030934,0.00182078,-0.00519265,-0.00259410,-0.0
 0624633,-0.03939388,0.11520352,-0.05012809,0.00041679,-0.00178781,0.00
 127474,0.00081159,0.00020173,0.00098095,0.00001182,-0.00004903,0.00000
 001,0.00009646,-0.00000841,0.00010088,-0.00000557,-0.00004815,-0.00001
 424,0.03309651,-0.07308947,0.05138227,0.00002372,-0.00011941,-0.000126
 07,-0.00004467,0.00006694,0.00005300,-0.00005699,0.00014413,0.00004942
 ,0.00036497,-0.00033091,0.00005200,0.00002018,0.00006371,0.00007119,-0
 .00003537,0.00004398,-0.00007391,0.00020730,-0.00281857,-0.00399802,0.
 00031404,0.00004712,0.00005643,-0.00102057,0.00037392,0.00012169,-0.01
 709077,0.00350432,0.00653383,0.00124480,0.00070879,0.00020726,-0.00159
 630,-0.00135371,-0.00089675,-0.47962968,0.08076588,-0.02430679,0.00052
 515,0.00054517,0.00009990,-0.00032271,0.00361599,0.00109804,0.00000267
 ,-0.00000372,0.00000428,-0.00000957,-0.00000687,-0.00000470,0.00055623
 ,0.00005834,0.00048531,-0.00216991,-0.00275302,0.00322266,0.49871749,-
 0.00004367,-0.00001328,-0.00003061,-0.00010397,0.00007450,0.00005779,0
 .00002774,0.00026120,0.00012855,0.00066521,-0.00064359,-0.00044411,0.0
 0007514,0.00038578,0.00048544,-0.00004287,0.00003476,-0.00006339,-0.00
 143925,-0.00445285,-0.00502707,0.00035125,0.00011209,0.00014368,-0.001
 88413,0.00042476,-0.00016627,-0.02745978,0.00670113,0.00390300,0.00070
 177,0.00017451,-0.00040341,-0.00810163,-0.00028658,-0.00160482,0.06430
 210,-0.08543324,-0.01215206,0.00239714,0.00059067,0.00004563,0.0023974
 8,-0.00198190,0.00037601,0.00000874,-0.00000032,0.00001012,-0.00000420
 ,0.00000109,-0.00000456,0.00084844,-0.00037026,0.00024997,0.04985657,-
 0.00624647,-0.00031499,-0.08255209,0.09066798,-0.00047841,-0.00001986,
 0.00000117,0.00018223,-0.00007155,-0.00003274,0.00025071,0.00015334,0.
 00007453,0.00037822,-0.00035222,-0.00010357,-0.00018207,0.00042821,0.0
 0005581,0.00002611,0.00006750,0.00008823,-0.00079331,-0.00332503,-0.00
 392199,-0.00015247,-0.00024956,0.00016622,-0.00131916,0.00006483,0.000
 77830,-0.03509913,0.00625066,-0.00401293,-0.00022604,0.00093079,0.0003
 6562,-0.00008604,-0.00082274,0.00295531,0.02973180,-0.02228463,-0.0272
 7888,0.00027723,0.00074674,-0.00045708,-0.00058260,0.00000600,-0.00183
 463,-0.00001193,-0.00000537,-0.00000038,-0.00004159,0.00003972,0.00003
 042,0.00059331,0.00009236,0.00037801,-0.00981809,0.00353973,-0.0022542
 5,0.01735123,0.01481109,0.03500283\\-0.00000583,0.00000271,0.00000166,
 0.00000746,-0.00000477,-0.00000377,-0.00000220,0.00000241,0.00000010,-
 0.00000080,0.00000243,0.00000069,-0.00000159,-0.00000124,0.00000093,-0
 .00000120,0.00000259,-0.00000067,0.00000413,0.00000168,0.00001079,0.00
 000130,-0.00000094,-0.00000351,0.00000085,-0.00000124,-0.00000188,-0.0
 0001144,-0.00000514,-0.00002991,-0.00000013,0.00000464,0.00000849,-0.0
 0000867,0.00000211,0.00000968,-0.00000136,0.00000043,0.00001874,-0.000
 00071,-0.00000231,0.00000081,0.00000793,-0.00000265,-0.00000035,0.0000
 0356,-0.00000282,0.00000001,0.00000015,-0.00000040,-0.00000211,0.00000
 306,-0.00000121,-0.00000136,0.00000262,0.00000399,-0.00000391,0.000002
 87,-0.00000027,-0.00000443\\\@


 SEEN ON A WALL AT THE UNIVERSITY OF ILLINOIS AT CHICAGO CIRCLE:

 TO DO IS TO BE  -- SOCRATES
 TO BE IS TO DO  -- SARTRE
 OO BE DO BE DO  -- SINATRA
 Job cpu time:       0 days  0 hours  4 minutes 38.1 seconds.
 File lengths (MBytes):  RWF=     79 Int=      0 D2E=      0 Chk=      3 Scr=      1
 Normal termination of Gaussian 09 at Tue Jan 10 14:37:47 2017.
